<?xml version="1.0" encoding="UTF-8"?>

<!-- generated on 2026-03-01T13:03:43.716290+05:30 by Eclipse SUMO sumo 1.25.0
<sumoConfiguration xmlns:xsi="http://www.w3.org/2001/XMLSchema-instance" xsi:noNamespaceSchemaLocation="http://sumo.dlr.de/xsd/sumoConfiguration.xsd">

    <input>
        <net-file value="grid.net.xml"/>
        <route-files value="routes.rou.xml"/>
    </input>

    <output>
        <fcd-output value="fcd.xml"/>
    </output>

    <time>
        <begin value="0"/>
        <end value="300"/>
    </time>

    <processing>
        <max-num-vehicles value="100"/>
    </processing>

</sumoConfiguration>
-->

<fcd-export xmlns:xsi="http://www.w3.org/2001/XMLSchema-instance" xsi:noNamespaceSchemaLocation="http://sumo.dlr.de/xsd/fcd_file.xsd">
    <timestep time="0.00">
        <vehicle id="0" x="598.40" y="787.70" angle="180.00" type="car" speed="0.00" pos="5.10" lane="D4D3_0" slope="0.00"/>
    </timestep>
    <timestep time="1.00">
        <vehicle id="0" x="598.40" y="786.48" angle="180.00" type="car" speed="1.22" pos="6.32" lane="D4D3_0" slope="0.00"/>
        <vehicle id="1" x="1.60" y="212.30" angle="0.00" type="car" speed="0.00" pos="5.10" lane="A1A2_0" slope="0.00"/>
        <vehicle id="2" x="1001.60" y="612.30" angle="0.00" type="car" speed="0.00" pos="5.10" lane="F3F4_0" slope="0.00"/>
    </timestep>
    <timestep time="2.00">
        <vehicle id="0" x="598.40" y="783.44" angle="180.00" type="car" speed="3.04" pos="9.36" lane="D4D3_0" slope="0.00"/>
        <vehicle id="1" x="1.60" y="213.66" angle="0.00" type="car" speed="1.36" pos="6.46" lane="A1A2_0" slope="0.00"/>
        <vehicle id="2" x="1001.60" y="613.83" angle="0.00" type="car" speed="1.53" pos="6.63" lane="F3F4_0" slope="0.00"/>
        <vehicle id="3" x="801.60" y="812.30" angle="0.00" type="car" speed="0.00" pos="5.10" lane="E4E5_0" slope="0.00"/>
    </timestep>
    <timestep time="3.00">
        <vehicle id="0" x="598.40" y="779.16" angle="180.00" type="car" speed="4.28" pos="13.64" lane="D4D3_0" slope="0.00"/>
        <vehicle id="1" x="1.60" y="216.92" angle="0.00" type="car" speed="3.26" pos="9.72" lane="A1A2_0" slope="0.00"/>
        <vehicle id="2" x="1001.60" y="616.51" angle="0.00" type="car" speed="2.68" pos="9.31" lane="F3F4_0" slope="0.00"/>
        <vehicle id="3" x="801.60" y="813.82" angle="0.00" type="car" speed="1.52" pos="6.62" lane="E4E5_0" slope="0.00"/>
        <vehicle id="4" x="598.40" y="787.70" angle="180.00" type="car" speed="0.00" pos="5.10" lane="D4D3_0" slope="0.00"/>
        <vehicle id="5" x="991.70" y="1001.60" angle="270.00" type="car" speed="0.00" pos="5.10" lane="F5E5_0" slope="0.00"/>
        <vehicle id="6" x="1001.60" y="8.30" angle="0.00" type="car" speed="0.00" pos="5.10" lane="F0F1_0" slope="0.00"/>
    </timestep>
    <timestep time="4.00">
        <vehicle id="0" x="598.40" y="773.15" angle="180.00" type="car" speed="6.01" pos="19.65" lane="D4D3_0" slope="0.00"/>
        <vehicle id="1" x="1.60" y="221.68" angle="0.00" type="car" speed="4.77" pos="14.48" lane="A1A2_0" slope="0.00"/>
        <vehicle id="2" x="1001.60" y="620.73" angle="0.00" type="car" speed="4.22" pos="13.53" lane="F3F4_0" slope="0.00"/>
        <vehicle id="3" x="801.60" y="816.64" angle="0.00" type="car" speed="2.82" pos="9.44" lane="E4E5_0" slope="0.00"/>
        <vehicle id="4" x="598.40" y="786.81" angle="180.00" type="car" speed="0.89" pos="5.99" lane="D4D3_0" slope="0.00"/>
        <vehicle id="5" x="990.15" y="1001.60" angle="270.00" type="car" speed="1.55" pos="6.65" lane="F5E5_0" slope="0.00"/>
        <vehicle id="6" x="1001.60" y="10.30" angle="0.00" type="car" speed="2.00" pos="7.10" lane="F0F1_0" slope="0.00"/>
        <vehicle id="7" x="401.60" y="412.30" angle="0.00" type="car" speed="0.00" pos="5.10" lane="C2C3_0" slope="0.00"/>
        <vehicle id="8" x="998.40" y="991.70" angle="180.00" type="car" speed="0.00" pos="5.10" lane="F5F4_0" slope="0.00"/>
    </timestep>
    <timestep time="5.00">
        <vehicle id="0" x="598.40" y="765.48" angle="180.00" type="car" speed="7.66" pos="27.32" lane="D4D3_0" slope="0.00"/>
        <vehicle id="1" x="1.60" y="228.32" angle="0.00" type="car" speed="6.64" pos="21.12" lane="A1A2_0" slope="0.00"/>
        <vehicle id="10" x="801.60" y="412.30" angle="0.00" type="car" speed="0.00" pos="5.10" lane="E2E3_0" slope="0.00"/>
        <vehicle id="2" x="1001.60" y="626.09" angle="0.00" type="car" speed="5.36" pos="18.89" lane="F3F4_0" slope="0.00"/>
        <vehicle id="3" x="801.60" y="820.49" angle="0.00" type="car" speed="3.84" pos="13.29" lane="E4E5_0" slope="0.00"/>
        <vehicle id="4" x="598.40" y="784.73" angle="180.00" type="car" speed="2.08" pos="8.07" lane="D4D3_0" slope="0.00"/>
        <vehicle id="5" x="987.20" y="1001.60" angle="270.00" type="car" speed="2.95" pos="9.60" lane="F5E5_0" slope="0.00"/>
        <vehicle id="6" x="1001.60" y="13.98" angle="0.00" type="car" speed="3.69" pos="10.78" lane="F0F1_0" slope="0.00"/>
        <vehicle id="7" x="401.60" y="414.22" angle="0.00" type="car" speed="1.92" pos="7.02" lane="C2C3_0" slope="0.00"/>
        <vehicle id="8" x="998.40" y="990.19" angle="180.00" type="car" speed="1.51" pos="6.61" lane="F5F4_0" slope="0.00"/>
        <vehicle id="9" x="398.40" y="787.70" angle="180.00" type="car" speed="0.00" pos="5.10" lane="C4C3_0" slope="0.00"/>
    </timestep>
    <timestep time="6.00">
        <vehicle id="0" x="598.40" y="756.50" angle="180.00" type="car" speed="8.98" pos="36.30" lane="D4D3_0" slope="0.00"/>
        <vehicle id="1" x="1.60" y="236.05" angle="0.00" type="car" speed="7.73" pos="28.85" lane="A1A2_0" slope="0.00"/>
        <vehicle id="10" x="801.60" y="414.26" angle="0.00" type="car" speed="1.96" pos="7.06" lane="E2E3_0" slope="0.00"/>
        <vehicle id="11" x="1001.60" y="8.30" angle="0.00" type="car" speed="0.00" pos="5.10" lane="F0F1_0" slope="0.00"/>
        <vehicle id="12" x="398.40" y="587.70" angle="180.00" type="car" speed="0.00" pos="5.10" lane="C3C2_0" slope="0.00"/>
        <vehicle id="2" x="1001.60" y="632.53" angle="0.00" type="car" speed="6.44" pos="25.33" lane="F3F4_0" slope="0.00"/>
        <vehicle id="3" x="801.60" y="826.26" angle="0.00" type="car" speed="5.78" pos="19.06" lane="E4E5_0" slope="0.00"/>
        <vehicle id="4" x="598.40" y="781.63" angle="180.00" type="car" speed="3.10" pos="11.17" lane="D4D3_0" slope="0.00"/>
        <vehicle id="5" x="983.07" y="1001.60" angle="270.00" type="car" speed="4.13" pos="13.73" lane="F5E5_0" slope="0.00"/>
        <vehicle id="6" x="1001.60" y="18.96" angle="0.00" type="car" speed="4.98" pos="15.76" lane="F0F1_0" slope="0.00"/>
        <vehicle id="7" x="401.60" y="417.57" angle="0.00" type="car" speed="3.35" pos="10.37" lane="C2C3_0" slope="0.00"/>
        <vehicle id="8" x="998.40" y="986.77" angle="180.00" type="car" speed="3.42" pos="10.03" lane="F5F4_0" slope="0.00"/>
        <vehicle id="9" x="398.40" y="785.83" angle="180.00" type="car" speed="1.87" pos="6.97" lane="C4C3_0" slope="0.00"/>
    </timestep>
    <timestep time="7.00">
        <vehicle id="0" x="598.40" y="745.79" angle="180.00" type="car" speed="10.72" pos="47.01" lane="D4D3_0" slope="0.00"/>
        <vehicle id="1" x="1.60" y="244.87" angle="0.00" type="car" speed="8.82" pos="37.67" lane="A1A2_0" slope="0.00"/>
        <vehicle id="10" x="801.60" y="417.92" angle="0.00" type="car" speed="3.66" pos="10.72" lane="E2E3_0" slope="0.00"/>
        <vehicle id="11" x="1001.60" y="9.62" angle="0.00" type="car" speed="1.32" pos="6.42" lane="F0F1_0" slope="0.00"/>
        <vehicle id="12" x="398.40" y="585.96" angle="180.00" type="car" speed="1.74" pos="6.84" lane="C3C2_0" slope="0.00"/>
        <vehicle id="13" x="412.30" y="-1.60" angle="90.00" type="car" speed="0.00" pos="5.10" lane="C0D0_0" slope="0.00"/>
        <vehicle id="14" x="201.60" y="412.30" angle="0.00" type="car" speed="0.00" pos="5.10" lane="B2B3_0" slope="0.00"/>
        <vehicle id="2" x="1001.60" y="640.40" angle="0.00" type="car" speed="7.87" pos="33.20" lane="F3F4_0" slope="0.00"/>
        <vehicle id="3" x="801.60" y="833.63" angle="0.00" type="car" speed="7.37" pos="26.43" lane="E4E5_0" slope="0.00"/>
        <vehicle id="4" x="598.40" y="777.21" angle="180.00" type="car" speed="4.42" pos="15.59" lane="D4D3_0" slope="0.00"/>
        <vehicle id="5" x="977.82" y="1001.60" angle="270.00" type="car" speed="5.24" pos="18.98" lane="F5E5_0" slope="0.00"/>
        <vehicle id="6" x="1001.60" y="25.29" angle="0.00" type="car" speed="6.32" pos="22.09" lane="F0F1_0" slope="0.00"/>
        <vehicle id="7" x="401.60" y="422.88" angle="0.00" type="car" speed="5.31" pos="15.68" lane="C2C3_0" slope="0.00"/>
        <vehicle id="8" x="998.40" y="982.29" angle="180.00" type="car" speed="4.48" pos="14.51" lane="F5F4_0" slope="0.00"/>
        <vehicle id="9" x="398.40" y="782.61" angle="180.00" type="car" speed="3.22" pos="10.19" lane="C4C3_0" slope="0.00"/>
    </timestep>
    <timestep time="8.00">
        <vehicle id="0" x="598.40" y="733.17" angle="180.00" type="car" speed="12.62" pos="59.63" lane="D4D3_0" slope="0.00"/>
        <vehicle id="1" x="1.60" y="254.84" angle="0.00" type="car" speed="9.97" pos="47.64" lane="A1A2_0" slope="0.00"/>
        <vehicle id="10" x="801.60" y="423.44" angle="0.00" type="car" speed="5.52" pos="16.24" lane="E2E3_0" slope="0.00"/>
        <vehicle id="11" x="1001.60" y="12.63" angle="0.00" type="car" speed="3.02" pos="9.43" lane="F0F1_0" slope="0.00"/>
        <vehicle id="12" x="398.40" y="582.55" angle="180.00" type="car" speed="3.41" pos="10.25" lane="C3C2_0" slope="0.00"/>
        <vehicle id="13" x="413.41" y="-1.60" angle="90.00" type="car" speed="1.11" pos="6.21" lane="C0D0_0" slope="0.00"/>
        <vehicle id="14" x="201.60" y="413.95" angle="0.00" type="car" speed="1.65" pos="6.75" lane="B2B3_0" slope="0.00"/>
        <vehicle id="15" x="801.60" y="212.30" angle="0.00" type="car" speed="0.00" pos="5.10" lane="E1E2_0" slope="0.00"/>
        <vehicle id="16" x="201.60" y="612.30" angle="0.00" type="car" speed="0.00" pos="5.10" lane="B3B4_0" slope="0.00"/>
        <vehicle id="2" x="1001.60" y="650.03" angle="0.00" type="car" speed="9.62" pos="42.83" lane="F3F4_0" slope="0.00"/>
        <vehicle id="3" x="801.60" y="842.16" angle="0.00" type="car" speed="8.53" pos="34.96" lane="E4E5_0" slope="0.00"/>
        <vehicle id="4" x="598.40" y="771.70" angle="180.00" type="car" speed="5.51" pos="21.10" lane="D4D3_0" slope="0.00"/>
        <vehicle id="5" x="971.48" y="1001.60" angle="270.00" type="car" speed="6.34" pos="25.32" lane="F5E5_0" slope="0.00"/>
        <vehicle id="6" x="1001.60" y="32.66" angle="0.00" type="car" speed="7.38" pos="29.46" lane="F0F1_0" slope="0.00"/>
        <vehicle id="7" x="401.60" y="429.89" angle="0.00" type="car" speed="7.01" pos="22.69" lane="C2C3_0" slope="0.00"/>
        <vehicle id="8" x="998.40" y="975.98" angle="180.00" type="car" speed="6.31" pos="20.82" lane="F5F4_0" slope="0.00"/>
        <vehicle id="9" x="398.40" y="777.91" angle="180.00" type="car" speed="4.70" pos="14.89" lane="C4C3_0" slope="0.00"/>
    </timestep>
    <timestep time="9.00">
        <vehicle id="0" x="598.40" y="719.48" angle="180.00" type="car" speed="13.69" pos="73.32" lane="D4D3_0" slope="0.00"/>
        <vehicle id="1" x="1.60" y="266.71" angle="0.00" type="car" speed="11.87" pos="59.51" lane="A1A2_0" slope="0.00"/>
        <vehicle id="10" x="801.60" y="430.62" angle="0.00" type="car" speed="7.18" pos="23.42" lane="E2E3_0" slope="0.00"/>
        <vehicle id="11" x="1001.60" y="17.58" angle="0.00" type="car" speed="4.94" pos="14.38" lane="F0F1_0" slope="0.00"/>
        <vehicle id="12" x="398.40" y="577.86" angle="180.00" type="car" speed="4.69" pos="14.94" lane="C3C2_0" slope="0.00"/>
        <vehicle id="13" x="415.81" y="-1.60" angle="90.00" type="car" speed="2.40" pos="8.61" lane="C0D0_0" slope="0.00"/>
        <vehicle id="14" x="201.60" y="416.68" angle="0.00" type="car" speed="2.73" pos="9.48" lane="B2B3_0" slope="0.00"/>
        <vehicle id="15" x="801.60" y="213.36" angle="0.00" type="car" speed="1.06" pos="6.16" lane="E1E2_0" slope="0.00"/>
        <vehicle id="16" x="201.60" y="613.58" angle="0.00" type="car" speed="1.28" pos="6.38" lane="B3B4_0" slope="0.00"/>
        <vehicle id="17" x="398.40" y="987.70" angle="180.00" type="car" speed="0.00" pos="5.10" lane="C5C4_0" slope="0.00"/>
        <vehicle id="18" x="612.30" y="198.40" angle="90.00" type="car" speed="0.00" pos="5.10" lane="D1E1_0" slope="0.00"/>
        <vehicle id="2" x="1001.60" y="661.52" angle="0.00" type="car" speed="11.49" pos="54.32" lane="F3F4_0" slope="0.00"/>
        <vehicle id="3" x="801.60" y="852.12" angle="0.00" type="car" speed="9.96" pos="44.92" lane="E4E5_0" slope="0.00"/>
        <vehicle id="4" x="598.40" y="764.68" angle="180.00" type="car" speed="7.02" pos="28.12" lane="D4D3_0" slope="0.00"/>
        <vehicle id="5" x="963.48" y="1001.60" angle="270.00" type="car" speed="8.00" pos="33.32" lane="F5E5_0" slope="0.00"/>
        <vehicle id="6" x="1001.60" y="41.26" angle="0.00" type="car" speed="8.60" pos="38.06" lane="F0F1_0" slope="0.00"/>
        <vehicle id="7" x="401.60" y="438.78" angle="0.00" type="car" speed="8.89" pos="31.58" lane="C2C3_0" slope="0.00"/>
        <vehicle id="8" x="998.40" y="968.56" angle="180.00" type="car" speed="7.42" pos="28.24" lane="F5F4_0" slope="0.00"/>
        <vehicle id="9" x="398.40" y="772.03" angle="180.00" type="car" speed="5.88" pos="20.77" lane="C4C3_0" slope="0.00"/>
    </timestep>
    <timestep time="10.00">
        <vehicle id="0" x="598.40" y="705.31" angle="180.00" type="car" speed="14.16" pos="87.49" lane="D4D3_0" slope="0.00"/>
        <vehicle id="1" x="1.60" y="279.16" angle="0.00" type="car" speed="12.45" pos="71.96" lane="A1A2_0" slope="0.00"/>
        <vehicle id="10" x="801.60" y="439.27" angle="0.00" type="car" speed="8.65" pos="32.07" lane="E2E3_0" slope="0.00"/>
        <vehicle id="11" x="1001.60" y="24.07" angle="0.00" type="car" speed="6.49" pos="20.87" lane="F0F1_0" slope="0.00"/>
        <vehicle id="12" x="398.40" y="572.12" angle="180.00" type="car" speed="5.75" pos="20.68" lane="C3C2_0" slope="0.00"/>
        <vehicle id="13" x="420.16" y="-1.60" angle="90.00" type="car" speed="4.35" pos="12.96" lane="C0D0_0" slope="0.00"/>
        <vehicle id="14" x="201.60" y="420.59" angle="0.00" type="car" speed="3.91" pos="13.39" lane="B2B3_0" slope="0.00"/>
        <vehicle id="15" x="801.60" y="215.72" angle="0.00" type="car" speed="2.36" pos="8.52" lane="E1E2_0" slope="0.00"/>
        <vehicle id="16" x="201.60" y="616.32" angle="0.00" type="car" speed="2.73" pos="9.12" lane="B3B4_0" slope="0.00"/>
        <vehicle id="17" x="398.40" y="985.91" angle="180.00" type="car" speed="1.79" pos="6.89" lane="C5C4_0" slope="0.00"/>
        <vehicle id="18" x="614.14" y="198.40" angle="90.00" type="car" speed="1.84" pos="6.94" lane="D1E1_0" slope="0.00"/>
        <vehicle id="19" x="212.30" y="-1.60" angle="90.00" type="car" speed="0.00" pos="5.10" lane="B0C0_0" slope="0.00"/>
        <vehicle id="2" x="1001.60" y="674.83" angle="0.00" type="car" speed="13.31" pos="67.63" lane="F3F4_0" slope="0.00"/>
        <vehicle id="20" x="398.40" y="587.70" angle="180.00" type="car" speed="0.00" pos="5.10" lane="C3C2_0" slope="0.00"/>
        <vehicle id="3" x="801.60" y="863.43" angle="0.00" type="car" speed="11.31" pos="56.23" lane="E4E5_0" slope="0.00"/>
        <vehicle id="4" x="598.40" y="756.37" angle="180.00" type="car" speed="8.31" pos="36.43" lane="D4D3_0" slope="0.00"/>
        <vehicle id="5" x="954.35" y="1001.60" angle="270.00" type="car" speed="9.13" pos="42.45" lane="F5E5_0" slope="0.00"/>
        <vehicle id="6" x="1001.60" y="51.18" angle="0.00" type="car" speed="9.92" pos="47.98" lane="F0F1_0" slope="0.00"/>
        <vehicle id="7" x="401.60" y="449.39" angle="0.00" type="car" speed="10.61" pos="42.19" lane="C2C3_0" slope="0.00"/>
        <vehicle id="8" x="998.40" y="960.05" angle="180.00" type="car" speed="8.50" pos="36.75" lane="F5F4_0" slope="0.00"/>
        <vehicle id="9" x="398.40" y="764.39" angle="180.00" type="car" speed="7.64" pos="28.41" lane="C4C3_0" slope="0.00"/>
    </timestep>
    <timestep time="11.00">
        <vehicle id="0" x="598.40" y="690.72" angle="180.00" type="car" speed="14.59" pos="102.08" lane="D4D3_0" slope="0.00"/>
        <vehicle id="1" x="1.60" y="292.19" angle="0.00" type="car" speed="13.03" pos="84.99" lane="A1A2_0" slope="0.00"/>
        <vehicle id="10" x="801.60" y="449.31" angle="0.00" type="car" speed="10.04" pos="42.11" lane="E2E3_0" slope="0.00"/>
        <vehicle id="11" x="1001.60" y="32.27" angle="0.00" type="car" speed="8.20" pos="29.07" lane="F0F1_0" slope="0.00"/>
        <vehicle id="12" x="398.40" y="564.49" angle="180.00" type="car" speed="7.63" pos="28.31" lane="C3C2_0" slope="0.00"/>
        <vehicle id="13" x="426.02" y="-1.60" angle="90.00" type="car" speed="5.86" pos="18.82" lane="C0D0_0" slope="0.00"/>
        <vehicle id="14" x="201.60" y="425.75" angle="0.00" type="car" speed="5.16" pos="18.55" lane="B2B3_0" slope="0.00"/>
        <vehicle id="15" x="801.60" y="219.40" angle="0.00" type="car" speed="3.68" pos="12.20" lane="E1E2_0" slope="0.00"/>
        <vehicle id="16" x="201.60" y="620.48" angle="0.00" type="car" speed="4.16" pos="13.28" lane="B3B4_0" slope="0.00"/>
        <vehicle id="17" x="398.40" y="982.23" angle="180.00" type="car" speed="3.68" pos="10.57" lane="C5C4_0" slope="0.00"/>
        <vehicle id="18" x="617.01" y="198.40" angle="90.00" type="car" speed="2.87" pos="9.81" lane="D1E1_0" slope="0.00"/>
        <vehicle id="19" x="213.36" y="-1.60" angle="90.00" type="car" speed="1.06" pos="6.16" lane="B0C0_0" slope="0.00"/>
        <vehicle id="2" x="1001.60" y="688.44" angle="0.00" type="car" speed="13.61" pos="81.24" lane="F3F4_0" slope="0.00"/>
        <vehicle id="20" x="398.40" y="586.68" angle="180.00" type="car" speed="1.02" pos="6.12" lane="C3C2_0" slope="0.00"/>
        <vehicle id="21" x="-1.60" y="587.70" angle="180.00" type="car" speed="0.00" pos="5.10" lane="A3A2_0" slope="0.00"/>
        <vehicle id="22" x="812.30" y="798.40" angle="90.00" type="car" speed="0.00" pos="5.10" lane="E4F4_0" slope="0.00"/>
        <vehicle id="3" x="801.60" y="876.31" angle="0.00" type="car" speed="12.88" pos="69.11" lane="E4E5_0" slope="0.00"/>
        <vehicle id="4" x="598.40" y="746.86" angle="180.00" type="car" speed="9.51" pos="45.94" lane="D4D3_0" slope="0.00"/>
        <vehicle id="5" x="943.66" y="1001.60" angle="270.00" type="car" speed="10.69" pos="53.14" lane="F5E5_0" slope="0.00"/>
        <vehicle id="6" x="1001.60" y="62.33" angle="0.00" type="car" speed="11.15" pos="59.13" lane="F0F1_0" slope="0.00"/>
        <vehicle id="7" x="401.60" y="460.95" angle="0.00" type="car" speed="11.56" pos="53.75" lane="C2C3_0" slope="0.00"/>
        <vehicle id="8" x="998.40" y="949.96" angle="180.00" type="car" speed="10.10" pos="46.84" lane="F5F4_0" slope="0.00"/>
        <vehicle id="9" x="398.40" y="754.97" angle="180.00" type="car" speed="9.42" pos="37.83" lane="C4C3_0" slope="0.00"/>
    </timestep>
    <timestep time="12.00">
        <vehicle id="0" x="598.40" y="676.18" angle="180.00" type="car" speed="14.54" pos="116.62" lane="D4D3_0" slope="0.00"/>
        <vehicle id="1" x="1.60" y="304.91" angle="0.00" type="car" speed="12.72" pos="97.71" lane="A1A2_0" slope="0.00"/>
        <vehicle id="10" x="801.60" y="460.72" angle="0.00" type="car" speed="11.41" pos="53.52" lane="E2E3_0" slope="0.00"/>
        <vehicle id="11" x="1001.60" y="42.01" angle="0.00" type="car" speed="9.74" pos="38.81" lane="F0F1_0" slope="0.00"/>
        <vehicle id="12" x="398.40" y="554.87" angle="180.00" type="car" speed="9.61" pos="37.93" lane="C3C2_0" slope="0.00"/>
        <vehicle id="13" x="433.29" y="-1.60" angle="90.00" type="car" speed="7.27" pos="26.09" lane="C0D0_0" slope="0.00"/>
        <vehicle id="14" x="201.60" y="432.41" angle="0.00" type="car" speed="6.66" pos="25.21" lane="B2B3_0" slope="0.00"/>
        <vehicle id="15" x="801.60" y="224.53" angle="0.00" type="car" speed="5.13" pos="17.33" lane="E1E2_0" slope="0.00"/>
        <vehicle id="16" x="201.60" y="625.77" angle="0.00" type="car" speed="5.29" pos="18.57" lane="B3B4_0" slope="0.00"/>
        <vehicle id="17" x="398.40" y="977.23" angle="180.00" type="car" speed="5.01" pos="15.57" lane="C5C4_0" slope="0.00"/>
        <vehicle id="18" x="621.25" y="198.40" angle="90.00" type="car" speed="4.24" pos="14.05" lane="D1E1_0" slope="0.00"/>
        <vehicle id="19" x="215.44" y="-1.60" angle="90.00" type="car" speed="2.08" pos="8.24" lane="B0C0_0" slope="0.00"/>
        <vehicle id="2" x="1001.60" y="701.62" angle="0.00" type="car" speed="13.18" pos="94.42" lane="F3F4_0" slope="0.00"/>
        <vehicle id="20" x="398.40" y="584.26" angle="180.00" type="car" speed="2.42" pos="8.54" lane="C3C2_0" slope="0.00"/>
        <vehicle id="21" x="-1.60" y="586.53" angle="180.00" type="car" speed="1.17" pos="6.27" lane="A3A2_0" slope="0.00"/>
        <vehicle id="22" x="813.31" y="798.40" angle="90.00" type="car" speed="1.01" pos="6.11" lane="E4F4_0" slope="0.00"/>
        <vehicle id="23" x="1.60" y="812.30" angle="0.00" type="car" speed="0.00" pos="5.10" lane="A4A5_0" slope="0.00"/>
        <vehicle id="3" x="801.60" y="890.65" angle="0.00" type="car" speed="14.33" pos="83.45" lane="E4E5_0" slope="0.00"/>
        <vehicle id="4" x="598.40" y="736.19" angle="180.00" type="car" speed="10.67" pos="56.61" lane="D4D3_0" slope="0.00"/>
        <vehicle id="5" x="933.10" y="1001.60" angle="270.00" type="car" speed="10.56" pos="63.70" lane="F5E5_0" slope="0.00"/>
        <vehicle id="6" x="1001.60" y="74.65" angle="0.00" type="car" speed="12.32" pos="71.45" lane="F0F1_0" slope="0.00"/>
        <vehicle id="7" x="401.60" y="473.22" angle="0.00" type="car" speed="12.27" pos="66.02" lane="C2C3_0" slope="0.00"/>
        <vehicle id="8" x="998.40" y="938.67" angle="180.00" type="car" speed="11.29" pos="58.13" lane="F5F4_0" slope="0.00"/>
        <vehicle id="9" x="398.40" y="744.18" angle="180.00" type="car" speed="10.79" pos="48.62" lane="C4C3_0" slope="0.00"/>
    </timestep>
    <timestep time="13.00">
        <vehicle id="0" x="598.40" y="662.38" angle="180.00" type="car" speed="13.81" pos="130.42" lane="D4D3_0" slope="0.00"/>
        <vehicle id="1" x="1.60" y="317.17" angle="0.00" type="car" speed="12.26" pos="109.97" lane="A1A2_0" slope="0.00"/>
        <vehicle id="10" x="801.60" y="473.29" angle="0.00" type="car" speed="12.57" pos="66.09" lane="E2E3_0" slope="0.00"/>
        <vehicle id="11" x="1001.60" y="53.40" angle="0.00" type="car" speed="11.39" pos="50.20" lane="F0F1_0" slope="0.00"/>
        <vehicle id="12" x="398.40" y="543.86" angle="180.00" type="car" speed="11.01" pos="48.94" lane="C3C2_0" slope="0.00"/>
        <vehicle id="13" x="442.51" y="-1.60" angle="90.00" type="car" speed="9.23" pos="35.31" lane="C0D0_0" slope="0.00"/>
        <vehicle id="14" x="201.60" y="440.70" angle="0.00" type="car" speed="8.29" pos="33.50" lane="B2B3_0" slope="0.00"/>
        <vehicle id="15" x="801.60" y="230.76" angle="0.00" type="car" speed="6.22" pos="23.56" lane="E1E2_0" slope="0.00"/>
        <vehicle id="16" x="201.60" y="632.97" angle="0.00" type="car" speed="7.20" pos="25.77" lane="B3B4_0" slope="0.00"/>
        <vehicle id="17" x="398.40" y="970.84" angle="180.00" type="car" speed="6.39" pos="21.96" lane="C5C4_0" slope="0.00"/>
        <vehicle id="18" x="627.11" y="198.40" angle="90.00" type="car" speed="5.86" pos="19.91" lane="D1E1_0" slope="0.00"/>
        <vehicle id="19" x="218.63" y="-1.60" angle="90.00" type="car" speed="3.19" pos="11.43" lane="B0C0_0" slope="0.00"/>
        <vehicle id="2" x="1001.60" y="715.63" angle="0.00" type="car" speed="14.02" pos="108.43" lane="F3F4_0" slope="0.00"/>
        <vehicle id="20" x="398.40" y="580.14" angle="180.00" type="car" speed="4.13" pos="12.66" lane="C3C2_0" slope="0.00"/>
        <vehicle id="21" x="-1.60" y="583.69" angle="180.00" type="car" speed="2.84" pos="9.11" lane="A3A2_0" slope="0.00"/>
        <vehicle id="22" x="816.25" y="798.40" angle="90.00" type="car" speed="2.94" pos="9.05" lane="E4F4_0" slope="0.00"/>
        <vehicle id="23" x="1.60" y="814.19" angle="0.00" type="car" speed="1.89" pos="6.99" lane="A4A5_0" slope="0.00"/>
        <vehicle id="24" x="398.40" y="587.70" angle="180.00" type="car" speed="0.00" pos="5.10" lane="C3C2_0" slope="0.00"/>
        <vehicle id="25" x="1001.60" y="212.30" angle="0.00" type="car" speed="0.00" pos="5.10" lane="F1F2_0" slope="0.00"/>
        <vehicle id="26" x="201.60" y="612.30" angle="0.00" type="car" speed="0.00" pos="5.10" lane="B3B4_0" slope="0.00"/>
        <vehicle id="3" x="801.60" y="905.12" angle="0.00" type="car" speed="14.47" pos="97.92" lane="E4E5_0" slope="0.00"/>
        <vehicle id="4" x="598.40" y="724.09" angle="180.00" type="car" speed="12.10" pos="68.71" lane="D4D3_0" slope="0.00"/>
        <vehicle id="5" x="922.09" y="1001.60" angle="270.00" type="car" speed="11.01" pos="74.71" lane="F5E5_0" slope="0.00"/>
        <vehicle id="6" x="1001.60" y="88.29" angle="0.00" type="car" speed="13.64" pos="85.09" lane="F0F1_0" slope="0.00"/>
        <vehicle id="7" x="401.60" y="485.26" angle="0.00" type="car" speed="12.04" pos="78.06" lane="C2C3_0" slope="0.00"/>
        <vehicle id="8" x="998.40" y="925.65" angle="180.00" type="car" speed="13.02" pos="71.15" lane="F5F4_0" slope="0.00"/>
        <vehicle id="9" x="398.40" y="733.05" angle="180.00" type="car" speed="11.13" pos="59.75" lane="C4C3_0" slope="0.00"/>
    </timestep>
    <timestep time="14.00">
        <vehicle id="0" x="598.40" y="647.92" angle="180.00" type="car" speed="14.46" pos="144.88" lane="D4D3_0" slope="0.00"/>
        <vehicle id="1" x="1.60" y="329.45" angle="0.00" type="car" speed="12.28" pos="122.25" lane="A1A2_0" slope="0.00"/>
        <vehicle id="10" x="801.60" y="487.51" angle="0.00" type="car" speed="14.22" pos="80.31" lane="E2E3_0" slope="0.00"/>
        <vehicle id="11" x="1001.60" y="65.97" angle="0.00" type="car" speed="12.57" pos="62.77" lane="F0F1_0" slope="0.00"/>
        <vehicle id="12" x="398.40" y="531.34" angle="180.00" type="car" speed="12.53" pos="61.46" lane="C3C2_0" slope="0.00"/>
        <vehicle id="13" x="452.99" y="-1.60" angle="90.00" type="car" speed="10.48" pos="45.79" lane="C0D0_0" slope="0.00"/>
        <vehicle id="14" x="201.60" y="450.30" angle="0.00" type="car" speed="9.59" pos="43.10" lane="B2B3_0" slope="0.00"/>
        <vehicle id="15" x="801.60" y="238.60" angle="0.00" type="car" speed="7.84" pos="31.40" lane="E1E2_0" slope="0.00"/>
        <vehicle id="16" x="201.60" y="641.64" angle="0.00" type="car" speed="8.66" pos="34.44" lane="B3B4_0" slope="0.00"/>
        <vehicle id="17" x="398.40" y="963.15" angle="180.00" type="car" speed="7.68" pos="29.65" lane="C5C4_0" slope="0.00"/>
        <vehicle id="18" x="634.13" y="198.40" angle="90.00" type="car" speed="7.02" pos="26.93" lane="D1E1_0" slope="0.00"/>
        <vehicle id="19" x="223.77" y="-1.60" angle="90.00" type="car" speed="5.14" pos="16.57" lane="B0C0_0" slope="0.00"/>
        <vehicle id="2" x="1001.60" y="729.33" angle="0.00" type="car" speed="13.70" pos="122.13" lane="F3F4_0" slope="0.00"/>
        <vehicle id="20" x="398.40" y="574.10" angle="180.00" type="car" speed="6.03" pos="18.70" lane="C3C2_0" slope="0.00"/>
        <vehicle id="21" x="-1.60" y="578.96" angle="180.00" type="car" speed="4.73" pos="13.84" lane="A3A2_0" slope="0.00"/>
        <vehicle id="22" x="820.93" y="798.40" angle="90.00" type="car" speed="4.68" pos="13.73" lane="E4F4_0" slope="0.00"/>
        <vehicle id="23" x="1.60" y="817.75" angle="0.00" type="car" speed="3.56" pos="10.55" lane="A4A5_0" slope="0.00"/>
        <vehicle id="24" x="398.40" y="587.65" angle="180.00" type="car" speed="0.05" pos="5.15" lane="C3C2_0" slope="0.00"/>
        <vehicle id="25" x="1001.60" y="213.86" angle="0.00" type="car" speed="1.56" pos="6.66" lane="F1F2_0" slope="0.00"/>
        <vehicle id="26" x="201.60" y="614.29" angle="0.00" type="car" speed="1.99" pos="7.09" lane="B3B4_0" slope="0.00"/>
        <vehicle id="27" x="-1.60" y="187.70" angle="180.00" type="car" speed="0.00" pos="5.10" lane="A1A0_0" slope="0.00"/>
        <vehicle id="28" x="212.30" y="398.40" angle="90.00" type="car" speed="0.00" pos="5.10" lane="B2C2_0" slope="0.00"/>
        <vehicle id="3" x="801.60" y="919.18" angle="0.00" type="car" speed="14.06" pos="111.98" lane="E4E5_0" slope="0.00"/>
        <vehicle id="4" x="598.40" y="710.84" angle="180.00" type="car" speed="13.25" pos="81.96" lane="D4D3_0" slope="0.00"/>
        <vehicle id="5" x="911.40" y="1001.60" angle="270.00" type="car" speed="10.69" pos="85.40" lane="F5E5_0" slope="0.00"/>
        <vehicle id="6" x="1001.60" y="102.29" angle="0.00" type="car" speed="14.00" pos="99.09" lane="F0F1_0" slope="0.00"/>
        <vehicle id="7" x="401.60" y="497.56" angle="0.00" type="car" speed="12.30" pos="90.36" lane="C2C3_0" slope="0.00"/>
        <vehicle id="8" x="998.40" y="913.05" angle="180.00" type="car" speed="12.60" pos="83.75" lane="F5F4_0" slope="0.00"/>
        <vehicle id="9" x="398.40" y="721.30" angle="180.00" type="car" speed="11.76" pos="71.50" lane="C4C3_0" slope="0.00"/>
    </timestep>
    <timestep time="15.00">
        <vehicle id="0" x="598.40" y="633.38" angle="180.00" type="car" speed="14.54" pos="159.42" lane="D4D3_0" slope="0.00"/>
        <vehicle id="1" x="1.60" y="341.79" angle="0.00" type="car" speed="12.35" pos="134.59" lane="A1A2_0" slope="0.00"/>
        <vehicle id="10" x="801.60" y="502.10" angle="0.00" type="car" speed="14.59" pos="94.90" lane="E2E3_0" slope="0.00"/>
        <vehicle id="11" x="1001.60" y="80.13" angle="0.00" type="car" speed="14.16" pos="76.93" lane="F0F1_0" slope="0.00"/>
        <vehicle id="12" x="398.40" y="517.27" angle="180.00" type="car" speed="14.07" pos="75.53" lane="C3C2_0" slope="0.00"/>