<?xml version="1.0" encoding="UTF-8"?>

<!-- generated on 2026-02-28T22:06:51.732080+05:30 by Eclipse SUMO sumo 1.25.0
<sumoConfiguration xmlns:xsi="http://www.w3.org/2001/XMLSchema-instance" xsi:noNamespaceSchemaLocation="http://sumo.dlr.de/xsd/sumoConfiguration.xsd">

    <input>
        <net-file value="city.net.xml"/>
        <route-files value="routes.rou.xml"/>
    </input>

    <output>
        <fcd-output value="fcd.xml"/>
    </output>

    <time>
        <begin value="0"/>
        <end value="300"/>
    </time>

    <processing>
        <max-num-vehicles value="50"/>
    </processing>

</sumoConfiguration>
-->

<fcd-export xmlns:xsi="http://www.w3.org/2001/XMLSchema-instance" xsi:noNamespaceSchemaLocation="http://sumo.dlr.de/xsd/fcd_file.xsd">
    <timestep time="0.00">
        <vehicle id="0" x="4576.47" y="6255.18" angle="82.93" type="car" speed="0.00" pos="5.10" lane="26755092_0" slope="0.00"/>
    </timestep>
    <timestep time="1.00">
        <vehicle id="0" x="4578.26" y="6255.40" angle="82.93" type="car" speed="1.80" pos="6.90" lane="26755092_0" slope="0.00"/>
        <vehicle id="1" x="4583.92" y="3697.22" angle="117.67" type="car" speed="0.00" pos="5.10" lane="-170090956#2_0" slope="0.00"/>
        <vehicle id="2" x="4888.20" y="4760.09" angle="104.54" type="car" speed="0.00" pos="5.10" lane="875771673_0" slope="0.00"/>
    </timestep>
    <timestep time="2.00">
        <vehicle id="0" x="4581.14" y="6255.76" angle="82.93" type="car" speed="2.91" pos="9.81" lane="26755092_0" slope="0.00"/>
        <vehicle id="1" x="4585.68" y="3696.30" angle="117.67" type="car" speed="1.99" pos="7.09" lane="-170090956#2_0" slope="0.00"/>
        <vehicle id="2" x="4889.50" y="4759.75" angle="104.54" type="car" speed="1.35" pos="6.45" lane="875771673_0" slope="0.00"/>
        <vehicle id="3" x="4326.01" y="6183.01" angle="82.47" type="car" speed="0.00" pos="5.10" lane="26755033_0" slope="0.00"/>
        <vehicle id="4" x="2965.80" y="5568.79" angle="186.08" type="car" speed="0.00" pos="5.10" lane="-776013274#0_0" slope="0.00"/>
    </timestep>
    <timestep time="3.00">
        <vehicle id="0" x="4585.90" y="6256.35" angle="82.93" type="car" speed="4.79" pos="14.60" lane="26755092_0" slope="0.00"/>
        <vehicle id="1" x="4589.16" y="3694.47" angle="117.67" type="car" speed="3.93" pos="11.02" lane="-170090956#2_0" slope="0.00"/>
        <vehicle id="2" x="4892.46" y="4758.98" angle="104.54" type="car" speed="3.05" pos="9.50" lane="875771673_0" slope="0.00"/>
        <vehicle id="3" x="4327.95" y="6183.27" angle="82.47" type="car" speed="1.96" pos="7.06" lane="26755033_0" slope="0.00"/>
        <vehicle id="4" x="2965.69" y="5567.76" angle="186.08" type="car" speed="1.03" pos="6.13" lane="-776013274#0_0" slope="0.00"/>
        <vehicle id="5" x="5077.42" y="5517.26" angle="177.41" type="car" speed="0.00" pos="5.10" lane="879562787#4_0" slope="0.00"/>
        <vehicle id="6" x="4145.75" y="5214.56" angle="188.96" type="car" speed="0.00" pos="5.10" lane="1058459828#0_0" slope="0.00"/>
    </timestep>
    <timestep time="4.00">
        <vehicle id="0" x="4592.08" y="6257.11" angle="82.93" type="car" speed="6.23" pos="20.83" lane="26755092_0" slope="0.00"/>
        <vehicle id="1" x="4594.35" y="3691.75" angle="117.67" type="car" speed="5.86" pos="16.88" lane="-170090956#2_0" slope="0.00"/>
        <vehicle id="2" x="4896.67" y="4757.89" angle="104.54" type="car" speed="4.35" pos="13.85" lane="875771673_0" slope="0.00"/>
        <vehicle id="3" x="4331.58" y="6183.75" angle="82.47" type="car" speed="3.66" pos="10.72" lane="26755033_0" slope="0.00"/>
        <vehicle id="4" x="2965.41" y="5565.16" angle="186.08" type="car" speed="2.62" pos="8.75" lane="-776013274#0_0" slope="0.00"/>
        <vehicle id="5" x="5077.49" y="5515.75" angle="177.41" type="car" speed="1.51" pos="6.61" lane="879562787#4_0" slope="0.00"/>
        <vehicle id="6" x="4145.54" y="5213.26" angle="188.96" type="car" speed="1.32" pos="6.42" lane="1058459828#0_0" slope="0.00"/>
        <vehicle id="7" x="4385.42" y="6093.94" angle="83.05" type="car" speed="0.00" pos="5.10" lane="466839444#6_0" slope="0.00"/>
        <vehicle id="8" x="2484.70" y="6031.76" angle="10.14" type="car" speed="0.00" pos="5.10" lane="-368412193#0_0" slope="0.00"/>
    </timestep>
    <timestep time="5.00">
        <vehicle id="0" x="4600.02" y="6258.10" angle="82.93" type="car" speed="8.00" pos="28.83" lane="26755092_0" slope="0.00"/>
        <vehicle id="1" x="4601.30" y="3688.11" angle="117.67" type="car" speed="7.85" pos="24.73" lane="-170090956#2_0" slope="0.00"/>
        <vehicle id="10" x="4584.53" y="4392.32" angle="200.24" type="car" speed="0.00" pos="5.10" lane="26755621#4_0" slope="0.00"/>
        <vehicle id="2" x="4902.40" y="4756.40" angle="104.54" type="car" speed="5.93" pos="19.78" lane="875771673_0" slope="0.00"/>
        <vehicle id="3" x="4337.05" y="6184.47" angle="82.47" type="car" speed="5.52" pos="16.24" lane="26755033_0" slope="0.00"/>
        <vehicle id="4" x="2965.01" y="5561.34" angle="186.08" type="car" speed="3.84" pos="12.59" lane="-776013274#0_0" slope="0.00"/>
        <vehicle id="5" x="5077.64" y="5512.34" angle="177.41" type="car" speed="3.42" pos="10.03" lane="879562787#4_0" slope="0.00"/>
        <vehicle id="6" x="4145.07" y="5210.29" angle="188.96" type="car" speed="3.01" pos="9.42" lane="1058459828#0_0" slope="0.00"/>
        <vehicle id="7" x="4387.27" y="6094.16" angle="83.05" type="car" speed="1.86" pos="6.96" lane="466839444#6_0" slope="0.00"/>
        <vehicle id="8" x="2485.09" y="6033.64" angle="10.74" type="car" speed="1.93" pos="7.03" lane="-368412193#0_0" slope="0.00"/>
        <vehicle id="9" x="4904.15" y="5034.55" angle="277.16" type="car" speed="0.00" pos="5.10" lane="-26755403#2_0" slope="0.00"/>
    </timestep>
    <timestep time="6.00">
        <vehicle id="0" x="4609.55" y="6259.28" angle="82.93" type="car" speed="9.61" pos="38.44" lane="26755092_0" slope="0.00"/>
        <vehicle id="1" x="4609.78" y="3683.66" angle="117.67" type="car" speed="9.57" pos="34.30" lane="-170090956#2_0" slope="0.00"/>
        <vehicle id="10" x="4584.18" y="4391.37" angle="200.24" type="car" speed="1.00" pos="6.10" lane="26755621#4_0" slope="0.00"/>
        <vehicle id="11" x="3851.10" y="3164.31" angle="228.24" type="car" speed="0.00" pos="5.10" lane="-26755614#1_0" slope="0.00"/>
        <vehicle id="12" x="3489.09" y="6102.39" angle="2.94" type="car" speed="0.00" pos="5.10" lane="1228357344#4_0" slope="0.00"/>
        <vehicle id="2" x="4909.48" y="4754.57" angle="104.54" type="car" speed="7.31" pos="27.08" lane="875771673_0" slope="0.00"/>
        <vehicle id="3" x="4344.17" y="6185.41" angle="82.47" type="car" speed="7.18" pos="23.42" lane="26755033_0" slope="0.00"/>
        <vehicle id="4" x="2963.92" y="5556.58" angle="193.24" type="car" speed="5.27" pos="17.87" lane="-776013274#0_0" slope="0.00"/>
        <vehicle id="5" x="5077.84" y="5507.86" angle="177.41" type="car" speed="4.48" pos="14.51" lane="879562787#4_0" slope="0.00"/>
        <vehicle id="6" x="4144.43" y="5206.22" angle="188.96" type="car" speed="4.12" pos="13.55" lane="1058459828#0_0" slope="0.00"/>
        <vehicle id="7" x="4390.22" y="6094.52" angle="83.05" type="car" speed="2.98" pos="9.93" lane="466839444#6_0" slope="0.00"/>
        <vehicle id="8" x="2486.57" y="6036.91" angle="20.97" type="car" speed="3.58" pos="10.61" lane="-368412193#0_0" slope="0.00"/>
        <vehicle id="9" x="4903.03" y="5034.69" angle="277.16" type="car" speed="1.13" pos="6.23" lane="-26755403#2_0" slope="0.00"/>
    </timestep>
    <timestep time="7.00">
        <vehicle id="0" x="4620.19" y="6260.60" angle="82.93" type="car" speed="10.72" pos="49.15" lane="26755092_0" slope="0.00"/>
        <vehicle id="1" x="4619.30" y="3678.67" angle="117.67" type="car" speed="10.74" pos="45.04" lane="-170090956#2_0" slope="0.00"/>
        <vehicle id="10" x="4583.39" y="4389.24" angle="200.24" type="car" speed="2.28" pos="8.38" lane="26755621#4_0" slope="0.00"/>
        <vehicle id="11" x="3850.23" y="3163.53" angle="228.24" type="car" speed="1.17" pos="6.27" lane="-26755614#1_0" slope="0.00"/>
        <vehicle id="12" x="3489.16" y="6103.71" angle="2.94" type="car" speed="1.32" pos="6.42" lane="1228357344#4_0" slope="0.00"/>
        <vehicle id="13" x="4084.06" y="4047.39" angle="208.29" type="car" speed="0.00" pos="5.10" lane="-26754322#2_0" slope="0.00"/>
        <vehicle id="14" x="2587.49" y="6281.79" angle="100.55" type="car" speed="0.00" pos="5.10" lane="368412196#3_0" slope="0.00"/>
        <vehicle id="2" x="4917.87" y="4752.39" angle="104.54" type="car" speed="8.67" pos="35.76" lane="875771673_0" slope="0.00"/>
        <vehicle id="3" x="4352.74" y="6186.55" angle="82.47" type="car" speed="8.65" pos="32.07" lane="26755033_0" slope="0.00"/>
        <vehicle id="4" x="2956.82" y="5555.27" angle="259.54" type="car" speed="7.22" pos="25.09" lane="-776013274#0_0" slope="0.00"/>
        <vehicle id="5" x="5078.13" y="5501.55" angle="177.41" type="car" speed="6.31" pos="20.82" lane="879562787#4_0" slope="0.00"/>
        <vehicle id="6" x="4143.62" y="5201.07" angle="188.96" type="car" speed="5.21" pos="18.76" lane="1058459828#0_0" slope="0.00"/>
        <vehicle id="7" x="4395.04" y="6095.11" angle="83.05" type="car" speed="4.85" pos="14.78" lane="466839444#6_0" slope="0.00"/>
        <vehicle id="8" x="2488.57" y="6041.09" angle="25.49" type="car" speed="4.64" pos="15.26" lane="-368412193#0_0" slope="0.00"/>
        <vehicle id="9" x="4900.42" y="5035.01" angle="277.16" type="car" speed="2.63" pos="8.86" lane="-26755403#2_0" slope="0.00"/>
    </timestep>
    <timestep time="8.00">
        <vehicle id="0" x="4632.17" y="6262.08" angle="82.93" type="car" speed="12.07" pos="61.23" lane="26755092_0" slope="0.00"/>
        <vehicle id="1" x="4627.15" y="3674.56" angle="117.67" type="car" speed="8.87" pos="53.91" lane="-170090956#2_0" slope="0.00"/>
        <vehicle id="10" x="4582.08" y="4385.68" angle="200.24" type="car" speed="3.79" pos="12.18" lane="26755621#4_0" slope="0.00"/>
        <vehicle id="11" x="3847.95" y="3161.37" angle="227.09" type="car" speed="3.17" pos="0.18" lane=":293453946_2_0" slope="0.00"/>
        <vehicle id="12" x="3489.33" y="6106.97" angle="2.94" type="car" speed="3.26" pos="9.68" lane="1228357344#4_0" slope="0.00"/>
        <vehicle id="13" x="4083.54" y="4046.41" angle="208.29" type="car" speed="1.11" pos="6.21" lane="-26754322#2_0" slope="0.00"/>
        <vehicle id="14" x="2589.24" y="6281.46" angle="100.55" type="car" speed="1.79" pos="6.89" lane="368412196#3_0" slope="0.00"/>
        <vehicle id="15" x="4233.35" y="5698.59" angle="275.00" type="car" speed="0.00" pos="5.10" lane="-26754515#0_0" slope="0.00"/>
        <vehicle id="16" x="4353.02" y="4941.19" angle="11.08" type="car" speed="0.00" pos="5.10" lane="-875771662_0" slope="0.00"/>
        <vehicle id="2" x="4927.52" y="4749.89" angle="104.54" type="car" speed="9.97" pos="45.73" lane="875771673_0" slope="0.00"/>
        <vehicle id="3" x="4362.70" y="6187.86" angle="82.47" type="car" speed="10.04" pos="42.11" lane="26755033_0" slope="0.00"/>
        <vehicle id="4" x="2948.37" y="5554.10" angle="264.02" type="car" speed="8.57" pos="33.66" lane="-776013274#0_0" slope="0.00"/>
        <vehicle id="5" x="5078.46" y="5494.13" angle="177.41" type="car" speed="7.42" pos="28.24" lane="879562787#4_0" slope="0.00"/>
        <vehicle id="6" x="4142.47" y="5193.97" angle="189.21" type="car" speed="7.19" pos="25.95" lane="1058459828#0_0" slope="0.00"/>
        <vehicle id="7" x="4401.47" y="6095.89" angle="83.05" type="car" speed="6.48" pos="21.26" lane="466839444#6_0" slope="0.00"/>
        <vehicle id="8" x="2492.50" y="6046.23" angle="37.40" type="car" speed="6.48" pos="21.73" lane="-368412193#0_0" slope="0.00"/>
        <vehicle id="9" x="4896.41" y="5035.52" angle="277.16" type="car" speed="4.05" pos="12.91" lane="-26755403#2_0" slope="0.00"/>
    </timestep>
    <timestep time="9.00">
        <vehicle id="0" x="4645.27" y="6263.71" angle="82.93" type="car" speed="13.21" pos="74.43" lane="26755092_0" slope="0.00"/>
        <vehicle id="1" x="4630.79" y="3671.09" angle="134.17" type="car" speed="5.16" pos="4.43" lane=":1812432282_12_0" slope="0.00"/>
        <vehicle id="10" x="4580.26" y="4380.75" angle="200.24" type="car" speed="5.26" pos="0.17" lane=":8151376741_1_0" slope="0.00"/>
        <vehicle id="11" x="3848.46" y="3159.05" angle="195.39" type="car" speed="2.79" pos="1.53" lane=":293453946_10_0" slope="0.00"/>
        <vehicle id="12" x="3489.57" y="6111.78" angle="2.94" type="car" speed="4.82" pos="14.49" lane="1228357344#4_0" slope="0.00"/>
        <vehicle id="13" x="4082.40" y="4044.30" angle="208.29" type="car" speed="2.40" pos="8.61" lane="-26754322#2_0" slope="0.00"/>
        <vehicle id="14" x="2592.86" y="6280.79" angle="100.55" type="car" speed="3.68" pos="10.57" lane="368412196#3_0" slope="0.00"/>
        <vehicle id="15" x="4231.43" y="5698.76" angle="275.00" type="car" speed="1.93" pos="7.03" lane="-26754515#0_0" slope="0.00"/>
        <vehicle id="16" x="4353.31" y="4942.68" angle="11.08" type="car" speed="1.52" pos="6.62" lane="-875771662_0" slope="0.00"/>
        <vehicle id="17" x="5022.88" y="4487.89" angle="115.34" type="car" speed="0.00" pos="5.10" lane="478254525#0_0" slope="0.00"/>
        <vehicle id="18" x="4479.70" y="5086.95" angle="277.85" type="car" speed="0.00" pos="5.10" lane="-26755450#5_0" slope="0.00"/>
        <vehicle id="2" x="4939.02" y="4746.91" angle="104.54" type="car" speed="11.88" pos="57.61" lane="875771673_0" slope="0.00"/>
        <vehicle id="3" x="4374.01" y="6189.36" angle="82.47" type="car" speed="11.41" pos="53.52" lane="26755033_0" slope="0.00"/>
        <vehicle id="4" x="2938.45" y="5554.84" angle="274.25" type="car" speed="9.94" pos="43.60" lane="-776013274#0_0" slope="0.00"/>
        <vehicle id="5" x="5078.85" y="5485.64" angle="177.41" type="car" speed="8.50" pos="36.75" lane="879562787#4_0" slope="0.00"/>
        <vehicle id="6" x="4141.01" y="5184.96" angle="189.21" type="car" speed="9.13" pos="35.08" lane="1058459828#0_0" slope="0.00"/>
        <vehicle id="7" x="4404.83" y="6096.30" angle="83.05" type="car" speed="3.38" pos="24.65" lane="466839444#6_0" slope="0.00"/>
        <vehicle id="8" x="2497.16" y="6052.32" angle="37.40" type="car" speed="7.67" pos="29.40" lane="-368412193#0_0" slope="0.00"/>
        <vehicle id="9" x="4890.91" y="5036.21" angle="277.16" type="car" speed="5.54" pos="18.45" lane="-26755403#2_0" slope="0.00"/>
    </timestep>
    <timestep time="10.00">
        <vehicle id="0" x="4659.03" y="6265.42" angle="82.93" type="car" speed="13.87" pos="88.30" lane="26755092_0" slope="0.00"/>
        <vehicle id="1" x="4629.26" y="3665.91" angle="198.75" type="car" speed="5.57" pos="0.96" lane="-170090973#3_0" slope="0.00"/>
        <vehicle id="10" x="4578.09" y="4374.86" angle="200.22" type="car" speed="6.27" pos="6.45" lane=":8151376741_1_0" slope="0.00"/>
        <vehicle id="11" x="3850.93" y="3159.88" angle="106.87" type="car" speed="2.78" pos="1.07" lane="26755614#1_0" slope="0.00"/>
        <vehicle id="12" x="3489.87" y="6117.59" angle="2.94" type="car" speed="5.82" pos="20.31" lane="1228357344#4_0" slope="0.00"/>
        <vehicle id="13" x="4080.34" y="4040.47" angle="208.29" type="car" speed="4.35" pos="12.96" lane="-26754322#2_0" slope="0.00"/>
        <vehicle id="14" x="2597.73" y="6279.88" angle="100.55" type="car" speed="4.95" pos="15.52" lane="368412196#3_0" slope="0.00"/>
        <vehicle id="15" x="4227.88" y="5699.07" angle="275.00" type="car" speed="3.56" pos="10.59" lane="-26754515#0_0" slope="0.00"/>
        <vehicle id="16" x="4353.93" y="4945.84" angle="11.08" type="car" speed="3.22" pos="9.85" lane="-875771662_0" slope="0.00"/>
        <vehicle id="17" x="5024.68" y="4487.03" angle="115.34" type="car" speed="2.00" pos="7.10" lane="478254525#0_0" slope="0.00"/>
        <vehicle id="18" x="4478.38" y="5087.13" angle="277.85" type="car" speed="1.33" pos="6.43" lane="-26755450#5_0" slope="0.00"/>
        <vehicle id="19" x="3859.41" y="5485.09" angle="2.86" type="car" speed="0.00" pos="5.10" lane="26755120#0_0" slope="0.00"/>
        <vehicle id="2" x="4950.60" y="4743.90" angle="104.54" type="car" speed="11.96" pos="69.58" lane="875771673_0" slope="0.00"/>
        <vehicle id="20" x="4834.69" y="5254.14" angle="276.35" type="car" speed="0.00" pos="5.10" lane="-875799006_0" slope="0.00"/>
        <vehicle id="3" x="4386.47" y="6191.01" angle="82.47" type="car" speed="12.57" pos="66.09" lane="26755033_0" slope="0.00"/>
        <vehicle id="4" x="2928.86" y="5555.55" angle="274.25" type="car" speed="9.62" pos="53.22" lane="-776013274#0_0" slope="0.00"/>
        <vehicle id="5" x="5079.30" y="5475.55" angle="177.41" type="car" speed="10.10" pos="46.84" lane="879562787#4_0" slope="0.00"/>
        <vehicle id="6" x="4139.37" y="5174.85" angle="189.21" type="car" speed="10.24" pos="45.32" lane="1058459828#0_0" slope="0.00"/>
        <vehicle id="7" x="4406.72" y="6098.36" angle="58.28" type="car" speed="3.20" pos="1.14" lane=":293464011_19_0" slope="0.00"/>
        <vehicle id="8" x="2502.66" y="6059.50" angle="37.59" type="car" speed="9.05" pos="38.44" lane="-368412193#0_0" slope="0.00"/>
        <vehicle id="9" x="4883.54" y="5037.13" angle="277.16" type="car" speed="7.43" pos="25.88" lane="-26755403#2_0" slope="0.00"/>
    </timestep>
    <timestep time="11.00">
        <vehicle id="0" x="4672.85" y="6267.13" angle="82.93" type="car" speed="13.92" pos="102.22" lane="26755092_0" slope="0.00"/>
        <vehicle id="1" x="4625.69" y="3660.33" angle="212.65" type="car" speed="6.62" pos="7.59" lane="-170090973#3_0" slope="0.00"/>
        <vehicle id="10" x="4575.42" y="4367.62" angle="200.22" type="car" speed="7.72" pos="14.17" lane=":8151376741_1_0" slope="0.00"/>
        <vehicle id="11" x="3853.98" y="3162.59" angle="48.28" type="car" speed="4.07" pos="5.15" lane="26755614#1_0" slope="0.00"/>
        <vehicle id="12" x="3490.23" y="6124.63" angle="2.94" type="car" speed="7.05" pos="27.36" lane="1228357344#4_0" slope="0.00"/>
        <vehicle id="13" x="4077.56" y="4035.31" angle="208.29" type="car" speed="5.86" pos="18.82" lane="-26754322#2_0" slope="0.00"/>
        <vehicle id="14" x="2603.01" y="6277.79" angle="113.40" type="car" speed="5.80" pos="3.90" lane=":3722532172_6_0" slope="0.00"/>
        <vehicle id="15" x="4223.09" y="5699.49" angle="275.00" type="car" speed="4.81" pos="15.39" lane="-26754515#0_0" slope="0.00"/>
        <vehicle id="16" x="4354.75" y="4950.01" angle="11.08" type="car" speed="4.25" pos="14.09" lane="-875771662_0" slope="0.00"/>
        <vehicle id="17" x="5027.70" y="4485.61" angle="115.34" type="car" speed="3.33" pos="10.43" lane="478254525#0_0" slope="0.00"/>
        <vehicle id="18" x="4475.92" y="5087.47" angle="277.85" type="car" speed="2.49" pos="8.91" lane="-26755450#5_0" slope="0.00"/>
        <vehicle id="19" x="3859.47" y="5486.21" angle="2.86" type="car" speed="1.12" pos="6.22" lane="26755120#0_0" slope="0.00"/>
        <vehicle id="2" x="4957.83" y="4742.03" angle="104.54" type="car" speed="7.46" pos="77.04" lane="875771673_0" slope="0.00"/>
        <vehicle id="20" x="4833.54" y="5254.27" angle="276.35" type="car" speed="1.16" pos="6.26" lane="-875799006_0" slope="0.00"/>
        <vehicle id="21" x="2591.00" y="5070.22" angle="5.90" type="car" speed="0.00" pos="5.10" lane="26755022#3_0" slope="0.00"/>
        <vehicle id="22" x="4762.00" y="4205.93" angle="291.29" type="car" speed="0.00" pos="5.10" lane="-875747691#1_0" slope="0.00"/>
        <vehicle id="3" x="4400.57" y="6192.87" angle="82.47" type="car" speed="14.22" pos="80.31" lane="26755033_0" slope="0.00"/>
        <vehicle id="4" x="2923.04" y="5555.99" angle="274.25" type="car" speed="5.84" pos="59.06" lane="-776013274#0_0" slope="0.00"/>
        <vehicle id="5" x="5079.52" y="5464.28" angle="180.77" type="car" speed="11.29" pos="58.13" lane="879562787#4_0" slope="0.00"/>
        <vehicle id="6" x="4137.53" y="5163.49" angle="189.21" type="car" speed="11.51" pos="56.83" lane="1058459828#0_0" slope="0.00"/>
        <vehicle id="7" x="4404.38" y="6099.47" angle="334.54" type="car" speed="2.79" pos="0.70" lane="-466839444#6_0" slope="0.00"/>
        <vehicle id="8" x="2509.28" y="6067.76" angle="38.71" type="car" speed="10.58" pos="49.03" lane="-368412193#0_0" slope="0.00"/>
        <vehicle id="9" x="4874.58" y="5038.26" angle="277.16" type="car" speed="9.03" pos="34.91" lane="-26755403#2_0" slope="0.00"/>
    </timestep>
    <timestep time="12.00">
        <vehicle id="0" x="4687.31" y="6268.92" angle="82.93" type="car" speed="14.57" pos="116.79" lane="26755092_0" slope="0.00"/>
        <vehicle id="1" x="4621.23" y="3653.37" angle="212.65" type="car" speed="8.26" pos="15.85" lane="-170090973#3_0" slope="0.00"/>
        <vehicle id="10" x="4572.31" y="4359.16" angle="200.21" type="car" speed="9.01" pos="8.77" lane="26755621#5_0" slope="0.00"/>
        <vehicle id="11" x="3858.32" y="3166.47" angle="48.21" type="car" speed="5.82" pos="1.72" lane=":8140906804_2_0" slope="0.00"/>
        <vehicle id="12" x="3490.65" y="6132.69" angle="2.94" type="car" speed="8.07" pos="35.43" lane="1228357344#4_0" slope="0.00"/>
        <vehicle id="13" x="4073.46" y="4030.34" angle="223.20" type="car" speed="6.60" pos="4.19" lane=":293462627_0_0" slope="0.00"/>
        <vehicle id="14" x="2603.84" y="6272.06" angle="177.51" type="car" speed="6.08" pos="0.95" lane="368430041_0" slope="0.00"/>
        <vehicle id="15" x="4216.69" y="5700.05" angle="275.00" type="car" speed="6.43" pos="21.82" lane="-26754515#0_0" slope="0.00"/>
        <vehicle id="16" x="4355.83" y="4955.54" angle="11.08" type="car" speed="5.64" pos="19.73" lane="-875771662_0" slope="0.00"/>
        <vehicle id="17" x="5032.40" y="4483.38" angle="115.34" type="car" speed="5.20" pos="15.63" lane="478254525#0_0" slope="0.00"/>
        <vehicle id="18" x="4471.48" y="5088.08" angle="277.85" type="car" speed="4.48" pos="13.39" lane="-26755450#5_0" slope="0.00"/>
        <vehicle id="19" x="3859.61" y="5488.92" angle="2.86" type="car" speed="2.70" pos="8.93" lane="26755120#0_0" slope="0.00"/>
        <vehicle id="2" x="4962.76" y="4741.63" angle="94.28" type="car" speed="5.15" pos="2.05" lane=":8151376713_4_1" slope="0.00"/>
        <vehicle id="20" x="4830.44" y="5254.62" angle="276.35" type="car" speed="3.12" pos="9.38" lane="-875799006_0" slope="0.00"/>
        <vehicle id="21" x="2591.16" y="5071.69" angle="5.90" type="car" speed="1.48" pos="6.58" lane="26755022#3_0" slope="0.00"/>
        <vehicle id="22" x="4760.49" y="4206.52" angle="291.29" type="car" speed="1.61" pos="6.71" lane="-875747691#1_0" slope="0.00"/>
        <vehicle id="23" x="2781.72" y="5938.23" angle="99.90" type="car" speed="0.00" pos="5.10" lane="478228064#1_0" slope="0.00"/>
        <vehicle id="24" x="3681.62" y="4952.97" angle="18.85" type="car" speed="0.00" pos="5.10" lane="26755470_0" slope="0.00"/>
        <vehicle id="3" x="4414.92" y="6194.77" angle="82.47" type="car" speed="14.48" pos="94.79" lane="26755033_0" slope="0.00"/>
        <vehicle id="4" x="2915.89" y="5555.06" angle="258.15" type="car" speed="7.35" pos="5.68" lane=":4613842332_2_0" slope="0.00"/>
        <vehicle id="5" x="5078.97" y="5451.01" angle="182.37" type="car" speed="13.28" pos="71.41" lane="879562787#4_0" slope="0.00"/>
        <vehicle id="6" x="4135.42" y="5150.46" angle="189.21" type="car" speed="13.20" pos="70.03" lane="1058459828#0_0" slope="0.00"/>
        <vehicle id="7" x="4399.97" y="6098.93" angle="263.07" type="car" speed="4.44" pos="5.14" lane="-466839444#6_0" slope="0.00"/>
        <vehicle id="8" x="2513.82" y="6078.58" angle="12.03" type="car" speed="12.03" pos="61.06" lane="-368412193#0_0" slope="0.00"/>
        <vehicle id="9" x="4863.85" y="5039.56" angle="276.59" type="car" speed="10.80" pos="3.74" lane=":8151376668_0_0" slope="0.00"/>
    </timestep>
    <timestep time="13.00">
        <vehicle id="0" x="4701.49" y="6270.68" angle="82.93" type="car" speed="14.29" pos="131.08" lane="26755092_0" slope="0.00"/>
        <vehicle id="1" x="4616.04" y="3645.28" angle="212.65" type="car" speed="9.61" pos="25.46" lane="-170090973#3_0" slope="0.00"/>
        <vehicle id="10" x="4568.76" y="4349.53" angle="200.30" type="car" speed="10.27" pos="0.62" lane=":293452370_1_0" slope="0.00"/>
        <vehicle id="11" x="3863.80" y="3171.39" angle="48.05" type="car" speed="7.37" pos="9.09" lane=":8140906804_2_0" slope="0.00"/>
        <vehicle id="12" x="3490.97" y="6138.88" angle="2.94" type="car" speed="6.20" pos="41.62" lane="1228357344#4_0" slope="0.00"/>
        <vehicle id="13" x="4067.39" y="4032.03" angle="292.25" type="car" speed="6.56" pos="1.72" lane="-26754372_0" slope="0.00"/>
        <vehicle id="14" x="2602.62" y="6264.39" angle="188.74" type="car" speed="7.76" pos="8.71" lane="368430041_0" slope="0.00"/>
        <vehicle id="15" x="4209.26" y="5700.70" angle="275.00" type="car" speed="7.46" pos="29.28" lane="-26754515#0_0" slope="0.00"/>
        <vehicle id="16" x="4357.13" y="4962.16" angle="11.08" type="car" speed="6.75" pos="26.48" lane="-875771662_0" slope="0.00"/>
        <vehicle id="17" x="5038.44" y="4480.52" angle="115.34" type="car" speed="6.68" pos="22.32" lane="478254525#0_0" slope="0.00"/>
        <vehicle id="18" x="4465.30" y="5088.93" angle="277.82" type="car" speed="6.24" pos="5.87" lane=":8151376678_0_0" slope="0.00"/>
        <vehicle id="19" x="3859.84" y="5493.53" angle="2.86" type="car" speed="4.62" pos="13.54" lane="26755120#0_0" slope="0.00"/>
        <vehicle id="2" x="4965.45" y="4746.80" angle="22.66" type="car" speed="5.97" pos="0.20" lane="456959535#5_2" slope="0.00"/>
        <vehicle id="20" x="4825.49" y="5255.17" angle="276.35" type="car" speed="4.98" pos="14.36" lane="-875799006_0" slope="0.00"/>
        <vehicle id="21" x="2591.44" y="5074.48" angle="5.90" type="car" speed="2.80" pos="9.38" lane="26755022#3_0" slope="0.00"/>
        <vehicle id="22" x="4757.83" y="4207.55" angle="291.29" type="car" speed="2.86" pos="9.57" lane="-875747691#1_0" slope="0.00"/>
        <vehicle id="23" x="2782.97" y="5938.02" angle="99.90" type="car" speed="1.26" pos="6.36" lane="478228064#1_0" slope="0.00"/>
        <vehicle id="24" x="3682.20" y="4954.68" angle="18.85" type="car" speed="1.81" pos="6.91" lane="26755470_0" slope="0.00"/>
        <vehicle id="25" x="4253.38" y="4975.17" angle="15.08" type="car" speed="0.00" pos="5.10" lane="-478254521#3_0" slope="0.00"/>
        <vehicle id="26" x="2205.57" y="4812.57" angle="58.74" type="car" speed="0.00" pos="5.10" lane="-876050223#1_0" slope="0.00"/>
        <vehicle id="3" x="4427.61" y="6196.45" angle="82.47" type="car" speed="12.80" pos="107.59" lane="26755033_0" slope="0.00"/>
        <vehicle id="4" x="2912.42" y="5548.77" angle="198.13" type="car" speed="7.63" pos="13.31" lane=":4613842332_2_0" slope="0.00"/>
        <vehicle id="5" x="5078.35" y="5436.16" angle="182.37" type="car" speed="14.85" pos="86.27" lane="879562787#4_0" slope="0.00"/>
        <vehicle id="6" x="4133.09" y="5136.10" angle="189.21" type="car" speed="14.54" pos="84.57" lane="1058459828#0_0" slope="0.00"/>
        <vehicle id="7" x="4394.49" y="6098.26" angle="263.07" type="car" speed="5.52" pos="10.66" lane="-466839444#6_0" slope="0.00"/>
        <vehicle id="8" x="2508.67" y="6089.69" angle="326.84" type="car" speed="12.75" pos="73.81" lane="-368412193#0_0" slope="0.00"/>
        <vehicle id="9" x="4852.74" y="5040.80" angle="276.34" type="car" speed="11.18" pos="0.39" lane="-26755403#1_0" slope="0.00"/>
    </timestep>
    <timestep time="14.00">
        <vehicle id="0" x="4715.47" y="6272.41" angle="82.93" type="car" speed="14.09" pos="145.17" lane="26755092_0" slope="0.00"/>
        <vehicle id="1" x="4612.87" y="3640.33" angle="212.65" type="car" speed="5.88" pos="31.33" lane="-170090973#3_0" slope="0.00"/>
        <vehicle id="10" x="4564.73" y="4339.00" angle="200.93" type="car" speed="11.28" pos="11.90" lane=":293452370_1_0" slope="0.00"/>
        <vehicle id="11" x="3870.17" y="3177.44" angle="46.38" type="car" speed="8.78" pos="8.44" lane="26755614#2_0" slope="0.00"/>
        <vehicle id="12" x="3490.93" y="6146.21" angle="358.14" type="car" speed="7.35" pos="3.99" lane=":3718108680_4_0" slope="0.00"/>
        <vehicle id="13" x="4060.74" y="4036.06" angle="301.21" type="car" speed="7.78" pos="9.49" lane="-26754372_0" slope="0.00"/>
        <vehicle id="14" x="2600.02" y="6255.12" angle="195.68" type="car" speed="9.64" pos="18.35" lane="368430041_0" slope="0.00"/>
        <vehicle id="15" x="4200.20" y="5701.50" angle="275.00" type="car" speed="9.10" pos="38.38" lane="-26754515#0_0" slope="0.00"/>
        <vehicle id="16" x="4358.75" y="4970.42" angle="11.08" type="car" speed="8.41" pos="34.89" lane="-875771662_0" slope="0.00"/>
        <vehicle id="17" x="5046.13" y="4476.88" angle="115.34" type="car" speed="8.51" pos="30.83" lane="478254525#0_0" slope="0.00"/>
        <vehicle id="18" x="4458.07" y="5089.92" angle="277.82" type="car" speed="7.30" pos="13.17" lane=":8151376678_0_0" slope="0.00"/>
        <vehicle id="19" x="3860.13" y="5499.30" angle="2.86" type="car" speed="5.78" pos="19.32" lane="26755120#0_0" slope="0.00"/>
        <vehicle id="2" x="4967.30" y="4754.51" angle="13.49" type="car" speed="7.92" pos="8.13" lane="456959535#5_2" slope="0.00"/>
        <vehicle id="20" x="4819.79" y="5255.80" angle="276.35" type="car" speed="5.73" pos="20.09" lane="-875799006_0" slope="0.00"/>
        <vehicle id="21" x="2591.89" y="5078.80" angle="5.90" type="car" speed="4.34" pos="13.72" lane="26755022#3_0" slope="0.00"/>
        <vehicle id="22" x="4753.55" y="4209.22" angle="291.29" type="car" speed="4.60" pos="14.16" lane="-875747691#1_0" slope="0.00"/>