<?xml version="1.0" encoding="UTF-8"?>

<!-- generated on 2026-03-03T01:17:50.822072+05:30 by Eclipse SUMO sumo 1.25.0
<sumoConfiguration xmlns:xsi="http://www.w3.org/2001/XMLSchema-instance" xsi:noNamespaceSchemaLocation="http://sumo.dlr.de/xsd/sumoConfiguration.xsd">

    <input>
        <net-file value="city.net.xml"/>
        <route-files value="routes.rou.xml"/>
    </input>

    <output>
        <fcd-output value="fcd.xml"/>
    </output>

    <time>
        <begin value="0"/>
        <end value="300"/>
    </time>

    <processing>
        <max-num-vehicles value="100"/>
    </processing>

</sumoConfiguration>
-->

<fcd-export xmlns:xsi="http://www.w3.org/2001/XMLSchema-instance" xsi:noNamespaceSchemaLocation="http://sumo.dlr.de/xsd/fcd_file.xsd">
    <timestep time="0.00">
        <vehicle id="0" x="1494.90" y="1907.12" angle="201.18" type="car" speed="0.00" pos="5.10" lane="26755261_0" slope="0.00"/>
    </timestep>
    <timestep time="1.00">
        <vehicle id="0" x="1494.52" y="1906.14" angle="201.18" type="car" speed="1.06" pos="6.16" lane="26755261_0" slope="0.00"/>
        <vehicle id="1" x="1832.42" y="2468.91" angle="183.04" type="car" speed="0.00" pos="5.10" lane="-26754128#2_0" slope="0.00"/>
        <vehicle id="2" x="1053.80" y="1853.49" angle="293.66" type="car" speed="0.00" pos="5.10" lane="876050221#0_0" slope="0.00"/>
    </timestep>
    <timestep time="2.00">
        <vehicle id="0" x="1493.76" y="1904.20" angle="201.18" type="car" speed="2.08" pos="8.24" lane="26755261_0" slope="0.00"/>
        <vehicle id="1" x="1832.32" y="2467.13" angle="183.04" type="car" speed="1.79" pos="6.89" lane="-26754128#2_0" slope="0.00"/>
        <vehicle id="2" x="1052.88" y="1853.89" angle="293.66" type="car" speed="1.00" pos="6.10" lane="876050221#0_0" slope="0.00"/>
        <vehicle id="3" x="1755.81" y="1035.04" angle="196.17" type="car" speed="0.00" pos="5.10" lane="279091475_0" slope="0.00"/>
        <vehicle id="4" x="1299.45" y="1559.11" angle="304.18" type="car" speed="0.00" pos="5.10" lane="26755213#1_0" slope="0.00"/>
    </timestep>
    <timestep time="3.00">
        <vehicle id="0" x="1492.61" y="1901.22" angle="201.18" type="car" speed="3.19" pos="11.43" lane="26755261_0" slope="0.00"/>
        <vehicle id="1" x="1832.13" y="2463.45" angle="183.04" type="car" speed="3.68" pos="10.57" lane="-26754128#2_0" slope="0.00"/>
        <vehicle id="2" x="1050.79" y="1854.80" angle="293.66" type="car" speed="2.28" pos="8.38" lane="876050221#0_0" slope="0.00"/>
        <vehicle id="3" x="1755.38" y="1033.55" angle="196.17" type="car" speed="1.55" pos="6.65" lane="279091475_0" slope="0.00"/>
        <vehicle id="4" x="1297.88" y="1560.18" angle="304.18" type="car" speed="1.90" pos="7.00" lane="26755213#1_0" slope="0.00"/>
        <vehicle id="5" x="1446.63" y="1937.69" angle="111.59" type="car" speed="0.00" pos="5.10" lane="876418713#2_0" slope="0.00"/>
        <vehicle id="6" x="1928.92" y="1036.93" angle="35.35" type="car" speed="0.00" pos="5.10" lane="466600305#2_0" slope="0.00"/>
    </timestep>
    <timestep time="4.00">
        <vehicle id="0" x="1490.75" y="1896.43" angle="201.18" type="car" speed="5.14" pos="16.57" lane="26755261_0" slope="0.00"/>
        <vehicle id="1" x="1831.86" y="2458.45" angle="183.04" type="car" speed="5.01" pos="15.57" lane="-26754128#2_0" slope="0.00"/>
        <vehicle id="2" x="1047.32" y="1856.33" angle="293.66" type="car" speed="3.79" pos="12.18" lane="876050221#0_0" slope="0.00"/>
        <vehicle id="3" x="1754.41" y="1030.77" angle="198.01" type="car" speed="2.95" pos="9.60" lane="279091475_0" slope="0.00"/>
        <vehicle id="4" x="1295.34" y="1561.90" angle="304.18" type="car" speed="3.07" pos="10.07" lane="26755213#1_0" slope="0.00"/>
        <vehicle id="5" x="1448.34" y="1937.02" angle="111.59" type="car" speed="1.84" pos="6.94" lane="876418713#2_0" slope="0.00"/>
        <vehicle id="6" x="1929.52" y="1037.77" angle="35.35" type="car" speed="1.03" pos="6.13" lane="466600305#2_0" slope="0.00"/>
        <vehicle id="7" x="2189.78" y="1277.86" angle="27.03" type="car" speed="0.00" pos="5.10" lane="-875801056#0_0" slope="0.00"/>
        <vehicle id="8" x="1961.17" y="1738.24" angle="111.47" type="car" speed="0.00" pos="5.10" lane="876418713#8_0" slope="0.00"/>
    </timestep>
    <timestep time="5.00">
        <vehicle id="0" x="1488.22" y="1889.89" angle="201.18" type="car" speed="7.01" pos="23.58" lane="26755261_0" slope="0.00"/>
        <vehicle id="1" x="1831.60" y="2453.54" angle="183.04" type="car" speed="4.92" pos="20.50" lane="-26754128#2_0" slope="0.00"/>
        <vehicle id="10" x="605.65" y="1821.94" angle="105.60" type="car" speed="0.00" pos="5.10" lane="26755831#0_0" slope="0.00"/>
        <vehicle id="2" x="1042.50" y="1858.44" angle="293.66" type="car" speed="5.26" pos="17.43" lane="876050221#0_0" slope="0.00"/>
        <vehicle id="3" x="1752.65" y="1027.04" angle="205.17" type="car" speed="4.13" pos="13.73" lane="279091475_0" slope="0.00"/>
        <vehicle id="4" x="1291.50" y="1564.51" angle="304.18" type="car" speed="4.65" pos="14.71" lane="26755213#1_0" slope="0.00"/>
        <vehicle id="5" x="1451.01" y="1935.96" angle="111.59" type="car" speed="2.87" pos="9.81" lane="876418713#2_0" slope="0.00"/>
        <vehicle id="6" x="1931.03" y="1039.91" angle="35.35" type="car" speed="2.62" pos="8.75" lane="466600305#2_0" slope="0.00"/>
        <vehicle id="7" x="2190.40" y="1279.09" angle="27.03" type="car" speed="1.38" pos="6.48" lane="-875801056#0_0" slope="0.00"/>
        <vehicle id="8" x="1962.25" y="1737.82" angle="111.47" type="car" speed="1.17" pos="6.27" lane="876418713#8_0" slope="0.00"/>
        <vehicle id="9" x="1179.06" y="1251.12" angle="304.68" type="car" speed="0.00" pos="5.10" lane="1134791509#2_0" slope="0.00"/>
    </timestep>
    <timestep time="6.00">
        <vehicle id="0" x="1485.22" y="1882.14" angle="201.18" type="car" speed="8.31" pos="31.89" lane="26755261_0" slope="0.00"/>
        <vehicle id="1" x="1831.31" y="2447.33" angle="182.59" type="car" speed="6.22" pos="4.45" lane=":293461978_1_0" slope="0.00"/>
        <vehicle id="10" x="607.05" y="1821.55" angle="105.60" type="car" speed="1.45" pos="6.55" lane="26755831#0_0" slope="0.00"/>
        <vehicle id="11" x="1990.28" y="1131.67" angle="31.61" type="car" speed="0.00" pos="5.10" lane="466600305#4_0" slope="0.00"/>
        <vehicle id="12" x="2084.48" y="1688.25" angle="293.84" type="car" speed="0.00" pos="5.10" lane="-876418713#10_0" slope="0.00"/>
        <vehicle id="2" x="1035.94" y="1861.31" angle="293.66" type="car" speed="7.16" pos="24.59" lane="876050221#0_0" slope="0.00"/>
        <vehicle id="3" x="1750.10" y="1021.61" angle="205.17" type="car" speed="6.00" pos="19.73" lane="279091475_0" slope="0.00"/>
        <vehicle id="4" x="1286.41" y="1567.97" angle="304.18" type="car" speed="6.15" pos="20.87" lane="26755213#1_0" slope="0.00"/>
        <vehicle id="5" x="1454.96" y="1934.40" angle="111.59" type="car" speed="4.24" pos="14.05" lane="876418713#2_0" slope="0.00"/>
        <vehicle id="6" x="1933.25" y="1043.04" angle="35.35" type="car" speed="3.84" pos="12.59" lane="466600305#2_0" slope="0.00"/>
        <vehicle id="7" x="2191.76" y="1281.76" angle="27.03" type="car" speed="3.00" pos="9.47" lane="-875801056#0_0" slope="0.00"/>
        <vehicle id="8" x="1964.90" y="1736.78" angle="111.47" type="car" speed="2.84" pos="9.11" lane="876418713#8_0" slope="0.00"/>
        <vehicle id="9" x="1177.88" y="1251.93" angle="304.68" type="car" speed="1.43" pos="6.53" lane="1134791509#2_0" slope="0.00"/>
    </timestep>
    <timestep time="7.00">
        <vehicle id="0" x="1481.80" y="1873.32" angle="201.18" type="car" speed="9.46" pos="41.35" lane="26755261_0" slope="0.00"/>
        <vehicle id="1" x="1830.98" y="2439.86" angle="182.53" type="car" speed="7.47" pos="11.93" lane=":293461978_1_0" slope="0.00"/>
        <vehicle id="10" x="609.88" y="1820.76" angle="105.60" type="car" speed="2.94" pos="9.49" lane="26755831#0_0" slope="0.00"/>
        <vehicle id="11" x="1990.99" y="1132.83" angle="31.61" type="car" speed="1.36" pos="6.46" lane="466600305#4_0" slope="0.00"/>
        <vehicle id="12" x="2083.55" y="1688.66" angle="293.84" type="car" speed="1.01" pos="6.11" lane="-876418713#10_0" slope="0.00"/>
        <vehicle id="13" x="708.36" y="2284.39" angle="278.41" type="car" speed="0.00" pos="5.10" lane="-367960633#1_0" slope="0.00"/>
        <vehicle id="14" x="2315.91" y="1865.36" angle="196.00" type="car" speed="0.00" pos="5.10" lane="26755644#0_0" slope="0.00"/>
        <vehicle id="2" x="1028.34" y="1864.75" angle="294.82" type="car" speed="8.35" pos="32.94" lane="876050221#0_0" slope="0.00"/>
        <vehicle id="3" x="1747.07" y="1015.18" angle="205.17" type="car" speed="7.11" pos="26.84" lane="279091475_0" slope="0.00"/>
        <vehicle id="4" x="1280.02" y="1572.31" angle="304.18" type="car" speed="7.72" pos="28.59" lane="26755213#1_0" slope="0.00"/>
        <vehicle id="5" x="1460.40" y="1932.24" angle="111.59" type="car" speed="5.86" pos="19.91" lane="876418713#2_0" slope="0.00"/>
        <vehicle id="6" x="1936.60" y="1047.76" angle="35.35" type="car" speed="5.79" pos="18.38" lane="466600305#2_0" slope="0.00"/>
        <vehicle id="7" x="2193.62" y="1285.40" angle="27.03" type="car" speed="4.09" pos="13.57" lane="-875801056#0_0" slope="0.00"/>
        <vehicle id="8" x="1969.29" y="1735.05" angle="111.47" type="car" speed="4.73" pos="13.84" lane="876418713#8_0" slope="0.00"/>
        <vehicle id="9" x="1178.14" y="1254.69" angle="338.74" type="car" speed="2.78" pos="9.31" lane="1134791509#2_0" slope="0.00"/>
    </timestep>
    <timestep time="8.00">
        <vehicle id="0" x="1477.81" y="1863.02" angle="201.18" type="car" speed="11.04" pos="52.39" lane="26755261_0" slope="0.00"/>
        <vehicle id="1" x="1830.64" y="2431.13" angle="182.10" type="car" speed="8.73" pos="6.18" lane="-26754128#1_0" slope="0.00"/>
        <vehicle id="10" x="614.51" y="1819.47" angle="105.60" type="car" speed="4.81" pos="14.29" lane="26755831#0_0" slope="0.00"/>
        <vehicle id="11" x="1992.48" y="1135.25" angle="31.61" type="car" speed="2.84" pos="9.29" lane="466600305#4_0" slope="0.00"/>
        <vehicle id="12" x="2081.30" y="1689.65" angle="293.84" type="car" speed="2.46" pos="8.57" lane="-876418713#10_0" slope="0.00"/>
        <vehicle id="13" x="707.27" y="2284.55" angle="278.41" type="car" speed="1.10" pos="6.20" lane="-367960633#1_0" slope="0.00"/>
        <vehicle id="14" x="2315.38" y="1863.51" angle="196.00" type="car" speed="1.92" pos="7.02" lane="26755644#0_0" slope="0.00"/>
        <vehicle id="15" x="997.65" y="1781.67" angle="215.04" type="car" speed="0.00" pos="5.10" lane="-26755633_0" slope="0.00"/>
        <vehicle id="16" x="1745.72" y="975.52" angle="128.30" type="car" speed="0.00" pos="5.10" lane="1209004192_0" slope="0.00"/>
        <vehicle id="2" x="1019.24" y="1869.03" angle="295.19" type="car" speed="10.06" pos="42.99" lane="876050221#0_0" slope="0.00"/>
        <vehicle id="3" x="1743.58" y="1007.75" angle="205.17" type="car" speed="8.21" pos="35.04" lane="279091475_0" slope="0.00"/>
        <vehicle id="4" x="1272.55" y="1577.38" angle="304.18" type="car" speed="9.03" pos="37.62" lane="26755213#1_0" slope="0.00"/>
        <vehicle id="5" x="1466.93" y="1929.66" angle="111.59" type="car" speed="7.02" pos="26.93" lane="876418713#2_0" slope="0.00"/>
        <vehicle id="6" x="1940.74" y="1053.60" angle="35.35" type="car" speed="7.15" pos="25.54" lane="466600305#2_0" slope="0.00"/>
        <vehicle id="7" x="2196.29" y="1290.62" angle="27.03" type="car" speed="5.86" pos="19.43" lane="-875801056#0_0" slope="0.00"/>
        <vehicle id="8" x="1975.09" y="1732.71" angle="112.04" type="car" speed="6.24" pos="2.51" lane=":293461281_6_0" slope="0.00"/>
        <vehicle id="9" x="1179.21" y="1258.52" angle="13.99" type="car" speed="4.22" pos="13.54" lane="1134791509#2_0" slope="0.00"/>
    </timestep>
    <timestep time="9.00">
        <vehicle id="0" x="1473.32" y="1851.42" angle="201.18" type="car" speed="12.44" pos="64.84" lane="26755261_0" slope="0.00"/>
        <vehicle id="1" x="1830.28" y="2421.35" angle="182.10" type="car" speed="9.79" pos="15.97" lane="-26754128#1_0" slope="0.00"/>
        <vehicle id="10" x="620.46" y="1817.81" angle="105.60" type="car" speed="6.18" pos="20.47" lane="26755831#0_0" slope="0.00"/>
        <vehicle id="11" x="1994.59" y="1138.66" angle="31.61" type="car" speed="4.01" pos="13.31" lane="466600305#4_0" slope="0.00"/>
        <vehicle id="12" x="2077.63" y="1691.27" angle="293.80" type="car" speed="4.02" pos="3.18" lane=":11613566804_1_0" slope="0.00"/>
        <vehicle id="13" x="704.20" y="2285.00" angle="278.41" type="car" speed="3.10" pos="9.31" lane="-367960633#1_0" slope="0.00"/>
        <vehicle id="14" x="2314.46" y="1860.29" angle="196.00" type="car" speed="3.35" pos="10.37" lane="26755644#0_0" slope="0.00"/>
        <vehicle id="15" x="996.52" y="1780.07" angle="215.04" type="car" speed="1.96" pos="7.06" lane="-26755633_0" slope="0.00"/>
        <vehicle id="16" x="1746.76" y="974.70" angle="128.30" type="car" speed="1.32" pos="6.42" lane="1209004192_0" slope="0.00"/>
        <vehicle id="17" x="2254.19" y="1266.83" angle="28.09" type="car" speed="0.00" pos="5.10" lane="26754393#1_0" slope="0.00"/>
        <vehicle id="18" x="1316.07" y="1561.56" angle="24.90" type="car" speed="0.00" pos="5.10" lane="-26755213#0_0" slope="0.00"/>
        <vehicle id="2" x="1009.01" y="1873.84" angle="295.19" type="car" speed="11.30" pos="54.30" lane="876050221#0_0" slope="0.00"/>
        <vehicle id="3" x="1741.16" y="998.35" angle="184.94" type="car" speed="9.86" pos="44.91" lane="279091475_0" slope="0.00"/>
        <vehicle id="4" x="1263.64" y="1583.43" angle="304.18" type="car" speed="10.77" pos="48.39" lane="26755213#1_0" slope="0.00"/>
        <vehicle id="5" x="1475.28" y="1926.35" angle="111.59" type="car" speed="8.99" pos="35.91" lane="876418713#2_0" slope="0.00"/>
        <vehicle id="6" x="1945.97" y="1060.97" angle="35.35" type="car" speed="9.04" pos="34.58" lane="466600305#2_0" slope="0.00"/>
        <vehicle id="7" x="2199.46" y="1296.83" angle="27.03" type="car" speed="6.97" pos="26.40" lane="-875801056#0_0" slope="0.00"/>
        <vehicle id="8" x="1982.42" y="1729.66" angle="112.62" type="car" speed="7.94" pos="10.45" lane=":293461281_6_0" slope="0.00"/>
        <vehicle id="9" x="1183.32" y="1261.47" angle="54.37" type="car" speed="5.06" pos="18.60" lane="1134791509#2_0" slope="0.00"/>
    </timestep>
    <timestep time="10.00">
        <vehicle id="0" x="1468.38" y="1838.67" angle="201.18" type="car" speed="13.67" pos="78.51" lane="26755261_0" slope="0.00"/>
        <vehicle id="1" x="1829.94" y="2411.90" angle="182.10" type="car" speed="9.45" pos="25.42" lane="-26754128#1_0" slope="0.00"/>
        <vehicle id="10" x="627.76" y="1815.77" angle="105.60" type="car" speed="7.58" pos="28.05" lane="26755831#0_0" slope="0.00"/>
        <vehicle id="11" x="1997.61" y="1143.58" angle="31.61" type="car" speed="5.77" pos="19.08" lane="466600305#4_0" slope="0.00"/>
        <vehicle id="12" x="2072.30" y="1693.62" angle="293.78" type="car" speed="5.82" pos="9.01" lane=":11613566804_1_0" slope="0.00"/>
        <vehicle id="13" x="699.48" y="2285.70" angle="278.41" type="car" speed="4.77" pos="14.08" lane="-367960633#1_0" slope="0.00"/>
        <vehicle id="14" x="2313.00" y="1855.19" angle="196.00" type="car" speed="5.31" pos="15.68" lane="26755644#0_0" slope="0.00"/>
        <vehicle id="15" x="994.28" y="1776.87" angle="215.04" type="car" speed="3.91" pos="10.97" lane="-26755633_0" slope="0.00"/>
        <vehicle id="16" x="1751.10" y="975.35" angle="128.30" type="car" speed="3.01" pos="9.42" lane="1209004192_1" slope="0.00"/>
        <vehicle id="17" x="2254.70" y="1267.78" angle="28.09" type="car" speed="1.09" pos="6.19" lane="26754393#1_0" slope="0.00"/>
        <vehicle id="18" x="1316.61" y="1562.72" angle="24.90" type="car" speed="1.28" pos="6.38" lane="-26755213#0_0" slope="0.00"/>
        <vehicle id="19" x="2052.99" y="1984.86" angle="353.99" type="car" speed="0.00" pos="5.10" lane="-876410421_0" slope="0.00"/>
        <vehicle id="2" x="997.19" y="1879.40" angle="295.19" type="car" speed="13.06" pos="67.36" lane="876050221#0_0" slope="0.00"/>
        <vehicle id="20" x="2283.17" y="1333.11" angle="206.02" type="car" speed="0.00" pos="5.10" lane="-26754393#2_0" slope="0.00"/>
        <vehicle id="3" x="1743.11" y="987.77" angle="160.14" type="car" speed="11.00" pos="55.90" lane="279091475_0" slope="0.00"/>
        <vehicle id="4" x="1253.84" y="1590.09" angle="304.18" type="car" speed="11.85" pos="60.24" lane="26755213#1_0" slope="0.00"/>
        <vehicle id="5" x="1484.57" y="1922.68" angle="111.59" type="car" speed="9.99" pos="45.90" lane="876418713#2_0" slope="0.00"/>
        <vehicle id="6" x="1952.01" y="1069.74" angle="33.71" type="car" speed="10.65" pos="4.15" lane=":293462591_7_0" slope="0.00"/>
        <vehicle id="7" x="2203.02" y="1303.81" angle="27.03" type="car" speed="7.84" pos="34.24" lane="-875801056#0_0" slope="0.00"/>
        <vehicle id="8" x="1991.13" y="1725.91" angle="113.78" type="car" speed="9.49" pos="5.71" lane="876418713#9_0" slope="0.00"/>
        <vehicle id="9" x="1189.11" y="1264.50" angle="64.92" type="car" speed="6.58" pos="4.93" lane=":10578971214_7_0" slope="0.00"/>
    </timestep>
    <timestep time="11.00">
        <vehicle id="0" x="1463.36" y="1825.72" angle="201.18" type="car" speed="13.90" pos="92.40" lane="26755261_0" slope="0.00"/>
        <vehicle id="1" x="1829.76" y="2406.96" angle="182.10" type="car" speed="4.95" pos="30.37" lane="-26754128#1_0" slope="0.00"/>
        <vehicle id="10" x="636.46" y="1813.34" angle="105.60" type="car" speed="9.03" pos="37.08" lane="26755831#0_0" slope="0.00"/>
        <vehicle id="11" x="2001.17" y="1149.37" angle="31.61" type="car" speed="6.80" pos="25.88" lane="466600305#4_0" slope="0.00"/>
        <vehicle id="12" x="2066.01" y="1696.39" angle="293.78" type="car" speed="6.88" pos="15.88" lane=":11613566804_1_0" slope="0.00"/>
        <vehicle id="13" x="692.91" y="2286.67" angle="278.41" type="car" speed="6.64" pos="20.72" lane="-367960633#1_0" slope="0.00"/>
        <vehicle id="14" x="2311.06" y="1848.44" angle="196.00" type="car" speed="7.01" pos="22.69" lane="26755644#0_0" slope="0.00"/>
        <vehicle id="15" x="991.16" y="1772.41" angle="215.04" type="car" speed="5.44" pos="16.41" lane="-26755633_0" slope="0.00"/>
        <vehicle id="16" x="1754.68" y="972.52" angle="128.30" type="car" speed="4.57" pos="13.99" lane="1209004192_1" slope="0.00"/>
        <vehicle id="17" x="2255.70" y="1269.65" angle="28.09" type="car" speed="2.11" pos="8.30" lane="26754393#1_0" slope="0.00"/>
        <vehicle id="18" x="1317.91" y="1565.53" angle="24.90" type="car" speed="3.10" pos="9.48" lane="-26755213#0_0" slope="0.00"/>
        <vehicle id="19" x="2052.83" y="1986.38" angle="353.99" type="car" speed="1.52" pos="6.62" lane="-876410421_0" slope="0.00"/>
        <vehicle id="2" x="983.68" y="1885.75" angle="295.19" type="car" speed="14.92" pos="82.28" lane="876050221#0_0" slope="0.00"/>
        <vehicle id="20" x="2282.73" y="1332.20" angle="206.02" type="car" speed="1.01" pos="6.11" lane="-26754393#2_0" slope="0.00"/>
        <vehicle id="21" x="724.88" y="1132.38" angle="26.85" type="car" speed="0.00" pos="5.10" lane="-26754514#2_0" slope="0.00"/>
        <vehicle id="22" x="2084.48" y="1688.25" angle="293.84" type="car" speed="0.00" pos="5.10" lane="-876418713#10_0" slope="0.00"/>
        <vehicle id="3" x="1749.07" y="981.02" angle="128.48" type="car" speed="9.26" pos="4.32" lane="1209004192_2" slope="0.00"/>
        <vehicle id="4" x="1242.59" y="1597.72" angle="304.18" type="car" speed="13.59" pos="73.83" lane="26755213#1_0" slope="0.00"/>
        <vehicle id="5" x="1493.48" y="1919.15" angle="111.59" type="car" speed="9.58" pos="55.48" lane="876418713#2_0" slope="0.00"/>
        <vehicle id="6" x="1958.80" y="1080.19" angle="32.43" type="car" speed="12.46" pos="2.40" lane="466600305#3_0" slope="0.00"/>
        <vehicle id="7" x="2205.85" y="1310.20" angle="22.70" type="car" speed="7.00" pos="2.66" lane=":8151586457_4_0" slope="0.00"/>
        <vehicle id="8" x="2001.34" y="1721.40" angle="113.78" type="car" speed="11.16" pos="16.88" lane="876418713#9_0" slope="0.00"/>
        <vehicle id="9" x="1194.58" y="1270.13" angle="32.93" type="car" speed="8.14" pos="2.23" lane="-1134791509#0_0" slope="0.00"/>
    </timestep>
    <timestep time="12.00">
        <vehicle id="0" x="1459.71" y="1816.29" angle="201.18" type="car" speed="10.11" pos="102.51" lane="26755261_0" slope="0.00"/>
        <vehicle id="1" x="1827.62" y="2401.77" angle="205.89" type="car" speed="5.89" pos="5.16" lane=":293461254_0_0" slope="0.00"/>
        <vehicle id="10" x="646.99" y="1810.30" angle="106.49" type="car" speed="10.96" pos="6.42" lane=":293457914_6_0" slope="0.00"/>
        <vehicle id="11" x="2005.50" y="1156.40" angle="31.61" type="car" speed="8.26" pos="34.14" lane="466600305#4_0" slope="0.00"/>
        <vehicle id="12" x="2058.52" y="1699.69" angle="293.79" type="car" speed="8.18" pos="4.75" lane="-876418713#9_0" slope="0.00"/>
        <vehicle id="13" x="684.50" y="2287.91" angle="278.41" type="car" speed="8.50" pos="29.22" lane="-367960633#1_0" slope="0.00"/>
        <vehicle id="14" x="2308.61" y="1839.90" angle="196.00" type="car" speed="8.89" pos="31.58" lane="26755644#0_0" slope="0.00"/>
        <vehicle id="15" x="987.07" y="1766.58" angle="215.04" type="car" speed="7.12" pos="23.53" lane="-26755633_0" slope="0.00"/>
        <vehicle id="16" x="1759.59" y="968.64" angle="128.30" type="car" speed="6.25" pos="20.24" lane="1209004192_1" slope="0.00"/>
        <vehicle id="17" x="2257.53" y="1273.08" angle="28.09" type="car" speed="3.89" pos="12.19" lane="26754393#1_0" slope="0.00"/>
        <vehicle id="18" x="1320.05" y="1570.14" angle="24.90" type="car" speed="5.08" pos="14.56" lane="-26755213#0_0" slope="0.00"/>
        <vehicle id="19" x="2052.49" y="1989.58" angle="353.99" type="car" speed="3.22" pos="9.85" lane="-876410421_0" slope="0.00"/>
        <vehicle id="2" x="970.06" y="1892.16" angle="295.19" type="car" speed="15.06" pos="97.34" lane="876050221#0_0" slope="0.00"/>
        <vehicle id="20" x="2281.44" y="1329.56" angle="206.02" type="car" speed="2.94" pos="9.05" lane="-26754393#2_0" slope="0.00"/>
        <vehicle id="21" x="725.50" y="1133.59" angle="26.85" type="car" speed="1.36" pos="6.46" lane="-26754514#2_0" slope="0.00"/>
        <vehicle id="22" x="2083.30" y="1688.77" angle="293.84" type="car" speed="1.29" pos="6.39" lane="-876418713#10_0" slope="0.00"/>
        <vehicle id="23" x="1792.81" y="2152.82" angle="109.47" type="car" speed="0.00" pos="5.10" lane="466622340#2_0" slope="0.00"/>
        <vehicle id="24" x="2271.16" y="2419.41" angle="271.42" type="car" speed="0.00" pos="5.10" lane="-26755627#1_0" slope="0.00"/>
        <vehicle id="3" x="1756.34" y="975.28" angle="128.30" type="car" speed="9.26" pos="13.58" lane="1209004192_2" slope="0.00"/>
        <vehicle id="4" x="1231.40" y="1605.33" angle="304.18" type="car" speed="13.54" pos="87.36" lane="26755213#1_0" slope="0.00"/>
        <vehicle id="5" x="1497.04" y="1915.81" angle="133.52" type="car" speed="5.08" pos="4.97" lane=":293452705_6_0" slope="0.00"/>
        <vehicle id="6" x="1965.87" y="1091.78" angle="31.40" type="car" speed="13.58" pos="15.97" lane="466600305#3_0" slope="0.00"/>
        <vehicle id="7" x="2205.10" y="1316.05" angle="346.46" type="car" speed="6.20" pos="8.86" lane=":8151586457_4_0" slope="0.00"/>
        <vehicle id="8" x="2013.27" y="1716.15" angle="113.78" type="car" speed="13.04" pos="29.92" lane="876418713#9_0" slope="0.00"/>
        <vehicle id="9" x="1198.32" y="1277.32" angle="27.51" type="car" speed="8.10" pos="10.33" lane="-1134791509#0_0" slope="0.00"/>
    </timestep>
    <timestep time="13.00">
        <vehicle id="0" x="1457.61" y="1810.87" angle="201.18" type="car" speed="5.81" pos="108.32" lane="26755261_0" slope="0.00"/>
        <vehicle id="1" x="1822.25" y="2400.91" angle="263.04" type="car" speed="5.55" pos="1.68" lane="-26755299#0_0" slope="0.00"/>
        <vehicle id="10" x="658.94" y="1806.69" angle="107.23" type="car" speed="12.49" pos="4.64" lane="26755831#1_0" slope="0.00"/>
        <vehicle id="11" x="2010.44" y="1164.41" angle="31.61" type="car" speed="9.41" pos="43.54" lane="466600305#4_0" slope="0.00"/>
        <vehicle id="12" x="2049.86" y="1703.51" angle="293.79" type="car" speed="9.47" pos="14.21" lane="-876418713#9_0" slope="0.00"/>
        <vehicle id="13" x="674.97" y="2289.32" angle="278.41" type="car" speed="9.64" pos="38.86" lane="-367960633#1_0" slope="0.00"/>
        <vehicle id="14" x="2305.69" y="1829.70" angle="196.00" type="car" speed="10.61" pos="42.19" lane="26755644#0_0" slope="0.00"/>
        <vehicle id="15" x="981.92" y="1759.24" angle="215.04" type="car" speed="8.97" pos="32.50" lane="-26755633_0" slope="0.00"/>
        <vehicle id="16" x="1767.74" y="966.28" angle="128.30" type="car" speed="7.86" pos="28.11" lane="1209004192_2" slope="0.00"/>
        <vehicle id="17" x="2260.16" y="1278.01" angle="28.09" type="car" speed="5.59" pos="17.78" lane="26754393#1_0" slope="0.00"/>
        <vehicle id="18" x="1322.98" y="1576.45" angle="24.90" type="car" speed="6.95" pos="21.52" lane="-26755213#0_0" slope="0.00"/>
        <vehicle id="19" x="2051.58" y="1994.07" angle="348.92" type="car" speed="4.61" pos="14.46" lane="-876410421_0" slope="0.00"/>
        <vehicle id="2" x="960.50" y="1896.66" angle="295.19" type="car" speed="10.56" pos="107.90" lane="876050221#0_0" slope="0.00"/>
        <vehicle id="20" x="2279.39" y="1325.35" angle="206.02" type="car" speed="4.68" pos="13.73" lane="-26754393#2_0" slope="0.00"/>
        <vehicle id="21" x="726.97" y="1136.50" angle="26.85" type="car" speed="3.26" pos="9.72" lane="-26754514#2_0" slope="0.00"/>
        <vehicle id="22" x="2080.51" y="1690.00" angle="293.84" type="car" speed="3.05" pos="0.03" lane=":11613566804_1_0" slope="0.00"/>
        <vehicle id="23" x="1794.32" y="2152.29" angle="109.47" type="car" speed="1.60" pos="6.70" lane="466622340#2_0" slope="0.00"/>
        <vehicle id="24" x="2269.45" y="2419.45" angle="271.42" type="car" speed="1.71" pos="6.81" lane="-26755627#1_0" slope="0.00"/>
        <vehicle id="25" x="806.60" y="943.03" angle="111.05" type="car" speed="0.00" pos="5.10" lane="-170090958#1_0" slope="0.00"/>
        <vehicle id="26" x="1651.45" y="2117.28" angle="203.17" type="car" speed="0.00" pos="5.10" lane="-26755553#2_0" slope="0.00"/>
        <vehicle id="3" x="1760.07" y="972.33" angle="128.30" type="car" speed="4.76" pos="18.34" lane="1209004192_2" slope="0.00"/>
        <vehicle id="4" x="1219.62" y="1613.33" angle="304.18" type="car" speed="14.24" pos="101.60" lane="26755213#1_0" slope="0.00"/>
        <vehicle id="5" x="1496.58" y="1911.47" angle="183.99" type="car" speed="4.46" pos="0.44" lane="26755261_0" slope="0.00"/>
        <vehicle id="6" x="1972.97" y="1103.40" angle="31.40" type="car" speed="13.62" pos="29.59" lane="466600305#3_0" slope="0.00"/>
        <vehicle id="7" x="2200.23" y="1319.99" angle="303.78" type="car" speed="6.38" pos="1.04" lane="-26754388#0_0" slope="0.00"/>
        <vehicle id="8" x="2026.74" y="1710.21" angle="113.78" type="car" speed="14.71" pos="44.63" lane="876418713#9_0" slope="0.00"/>
        <vehicle id="9" x="1200.25" y="1281.02" angle="27.51" type="car" speed="4.17" pos="14.50" lane="-1134791509#0_0" slope="0.00"/>
    </timestep>
    <timestep time="14.00">
        <vehicle id="0" x="1456.84" y="1808.12" angle="198.01" type="car" speed="2.93" pos="0.49" lane=":293452704_2_0" slope="0.00"/>
        <vehicle id="1" x="1815.52" y="2401.17" angle="272.22" type="car" speed="6.74" pos="8.42" lane="-26755299#0_0" slope="0.00"/>
        <vehicle id="10" x="672.73" y="1802.40" angle="107.29" type="car" speed="14.44" pos="19.07" lane="26755831#1_0" slope="0.00"/>
        <vehicle id="11" x="2016.32" y="1174.02" angle="31.33" type="car" speed="11.26" pos="1.70" lane=":293462577_7_0" slope="0.00"/>
        <vehicle id="12" x="2039.89" y="1707.91" angle="293.79" type="car" speed="10.89" pos="25.10" lane="-876418713#9_0" slope="0.00"/>
        <vehicle id="13" x="664.40" y="2290.88" angle="278.41" type="car" speed="10.68" pos="49.54" lane="-367960633#1_0" slope="0.00"/>
        <vehicle id="14" x="2302.08" y="1818.39" angle="198.31" type="car" speed="11.86" pos="54.06" lane="26755644#0_0" slope="0.00"/>
        <vehicle id="15" x="975.89" y="1750.63" angle="215.04" type="car" speed="10.51" pos="43.01" lane="-26755633_0" slope="0.00"/>
        <vehicle id="16" x="1774.74" y="960.75" angle="128.30" type="car" speed="8.93" pos="37.03" lane="1209004192_2" slope="0.00"/>
        <vehicle id="17" x="2261.88" y="1282.25" angle="22.65" type="car" speed="4.58" pos="3.34" lane=":293462630_4_0" slope="0.00"/>
        <vehicle id="18" x="1326.70" y="1584.47" angle="24.90" type="car" speed="8.85" pos="30.36" lane="-26755213#0_0" slope="0.00"/>
        <vehicle id="19" x="2049.29" y="1999.91" angle="338.68" type="car" speed="6.28" pos="20.74" lane="-876410421_0" slope="0.00"/>
        <vehicle id="2" x="954.80" y="1898.56" angle="287.02" type="car" speed="6.06" pos="4.36" lane=":8153730414_1_0" slope="0.00"/>
        <vehicle id="20" x="2276.73" y="1319.91" angle="206.02" type="car" speed="6.06" pos="19.79" lane="-26754393#2_0" slope="0.00"/>
        <vehicle id="21" x="729.07" y="1140.79" angle="26.15" type="car" speed="4.77" pos="3.68" lane=":293460709_7_0" slope="0.00"/>
        <vehicle id="22" x="2076.31" y="1691.86" angle="293.78" type="car" speed="4.59" pos="4.63" lane=":11613566804_1_0" slope="0.00"/>