<?xml version="1.0" encoding="UTF-8"?>

<!-- generated on 2026-03-05T02:16:10.473352+05:30 by Eclipse SUMO sumo 1.25.0
<sumoConfiguration xmlns:xsi="http://www.w3.org/2001/XMLSchema-instance" xsi:noNamespaceSchemaLocation="http://sumo.dlr.de/xsd/sumoConfiguration.xsd">

    <input>
        <net-file value="city.net.xml"/>
        <route-files value="routes.rou.xml"/>
    </input>

    <output>
        <fcd-output value="fcd.xml"/>
    </output>

    <time>
        <begin value="0"/>
        <end value="300"/>
    </time>

    <processing>
        <max-num-vehicles value="40"/>
    </processing>

</sumoConfiguration>
-->

<fcd-export xmlns:xsi="http://www.w3.org/2001/XMLSchema-instance" xsi:noNamespaceSchemaLocation="http://sumo.dlr.de/xsd/fcd_file.xsd">
    <timestep time="0.00">
        <vehicle id="0" x="880.38" y="1105.16" angle="278.16" type="car" speed="0.00" pos="5.10" lane="876050222#0_0" slope="0.00"/>
    </timestep>
    <timestep time="1.00">
        <vehicle id="0" x="878.54" y="1105.70" angle="281.22" type="car" speed="1.94" pos="7.04" lane="876050222#0_0" slope="0.00"/>
        <vehicle id="1" x="788.61" y="1188.61" angle="176.16" type="car" speed="0.00" pos="5.10" lane="464650417_0" slope="0.00"/>
        <vehicle id="2" x="989.65" y="1054.73" angle="115.45" type="car" speed="0.00" pos="5.10" lane="-279091483#9_0" slope="0.00"/>
    </timestep>
    <timestep time="2.00">
        <vehicle id="0" x="875.65" y="1107.05" angle="292.10" type="car" speed="3.19" pos="10.23" lane="876050222#0_0" slope="0.00"/>
        <vehicle id="1" x="789.05" y="1186.67" angle="171.86" type="car" speed="2.00" pos="7.10" lane="464650417_0" slope="0.00"/>
        <vehicle id="2" x="991.04" y="1054.07" angle="115.45" type="car" speed="1.53" pos="6.63" lane="-279091483#9_0" slope="0.00"/>
        <vehicle id="3" x="945.95" y="883.05" angle="123.19" type="car" speed="0.00" pos="5.10" lane="26755191#1_0" slope="0.00"/>
        <vehicle id="4" x="1018.25" y="1572.02" angle="195.09" type="car" speed="0.00" pos="5.10" lane="-26755460#1_0" slope="0.00"/>
    </timestep>
    <timestep time="3.00">
        <vehicle id="0" x="871.68" y="1108.91" angle="295.12" type="car" speed="4.39" pos="14.62" lane="876050222#0_0" slope="0.00"/>
        <vehicle id="1" x="789.86" y="1183.07" angle="167.23" type="car" speed="3.69" pos="10.78" lane="464650417_0" slope="0.00"/>
        <vehicle id="2" x="993.42" y="1052.94" angle="115.45" type="car" speed="2.64" pos="9.27" lane="-279091483#9_0" slope="0.00"/>
        <vehicle id="3" x="946.80" y="882.49" angle="123.18" type="car" speed="1.01" pos="6.11" lane="26755191#1_0" slope="0.00"/>
        <vehicle id="4" x="1017.99" y="1571.05" angle="195.09" type="car" speed="1.00" pos="6.10" lane="-26755460#1_0" slope="0.00"/>
        <vehicle id="5" x="1047.64" y="1179.87" angle="21.18" type="car" speed="0.00" pos="5.10" lane="-26755261_0" slope="0.00"/>
        <vehicle id="6" x="1484.27" y="1363.55" angle="201.34" type="car" speed="0.00" pos="5.10" lane="-26755610#1_0" slope="0.00"/>
    </timestep>
    <timestep time="4.00">
        <vehicle id="0" x="865.94" y="1111.60" angle="295.12" type="car" speed="6.33" pos="20.95" lane="876050222#0_0" slope="0.00"/>
        <vehicle id="1" x="791.11" y="1178.25" angle="165.47" type="car" speed="4.98" pos="15.76" lane="464650417_0" slope="0.00"/>
        <vehicle id="2" x="997.49" y="1051.00" angle="115.45" type="car" speed="4.51" pos="13.78" lane="-279091483#9_0" slope="0.00"/>
        <vehicle id="3" x="948.86" y="881.15" angle="123.17" type="car" speed="2.46" pos="8.57" lane="26755191#1_0" slope="0.00"/>
        <vehicle id="4" x="1017.40" y="1568.85" angle="195.09" type="car" speed="2.28" pos="8.38" lane="-26755460#1_0" slope="0.00"/>
        <vehicle id="5" x="1048.03" y="1180.87" angle="21.18" type="car" speed="1.08" pos="6.18" lane="-26755261_0" slope="0.00"/>
        <vehicle id="6" x="1483.90" y="1362.60" angle="201.34" type="car" speed="1.01" pos="6.11" lane="-26755610#1_0" slope="0.00"/>
        <vehicle id="7" x="1242.43" y="1460.52" angle="110.75" type="car" speed="0.00" pos="5.10" lane="26755479_0" slope="0.00"/>
        <vehicle id="8" x="568.40" y="1065.13" angle="32.47" type="car" speed="0.00" pos="5.10" lane="26755620_0" slope="0.00"/>
    </timestep>
    <timestep time="5.00">
        <vehicle id="0" x="860.62" y="1114.10" angle="295.12" type="car" speed="5.88" pos="26.83" lane="876050222#0_0" slope="0.00"/>
        <vehicle id="1" x="793.08" y="1172.25" angle="161.88" type="car" speed="6.32" pos="22.09" lane="464650417_0" slope="0.00"/>
        <vehicle id="10" x="1382.24" y="1172.67" angle="291.93" type="car" speed="0.00" pos="5.10" lane="-876418713#4_0" slope="0.00"/>
        <vehicle id="2" x="1002.95" y="1048.40" angle="115.45" type="car" speed="6.05" pos="19.83" lane="-279091483#9_0" slope="0.00"/>
        <vehicle id="3" x="952.22" y="878.95" angle="123.17" type="car" speed="4.02" pos="12.59" lane="26755191#1_0" slope="0.00"/>
        <vehicle id="4" x="1016.41" y="1565.19" angle="195.09" type="car" speed="3.79" pos="12.18" lane="-26755460#1_0" slope="0.00"/>
        <vehicle id="5" x="1048.99" y="1183.34" angle="21.18" type="car" speed="2.65" pos="8.83" lane="-26755261_0" slope="0.00"/>
        <vehicle id="6" x="1482.84" y="1359.87" angle="201.34" type="car" speed="2.94" pos="9.05" lane="-26755610#1_0" slope="0.00"/>
        <vehicle id="7" x="1243.39" y="1460.16" angle="110.75" type="car" speed="1.03" pos="6.13" lane="26755479_0" slope="0.00"/>
        <vehicle id="8" x="569.09" y="1066.22" angle="32.47" type="car" speed="1.29" pos="6.39" lane="26755620_0" slope="0.00"/>
        <vehicle id="9" x="661.63" y="1111.98" angle="120.58" type="car" speed="0.00" pos="5.10" lane="26755732#3_0" slope="0.00"/>
    </timestep>
    <timestep time="6.00">
        <vehicle id="0" x="864.10" y="1115.20" angle="73.03" type="car" speed="5.05" pos="4.29" lane=":cluster_8153730405_8156750688_7_0" slope="0.00"/>
        <vehicle id="1" x="796.05" y="1165.21" angle="156.31" type="car" speed="7.64" pos="29.73" lane="464650417_0" slope="0.00"/>
        <vehicle id="10" x="1380.71" y="1173.29" angle="291.93" type="car" speed="1.65" pos="6.75" lane="-876418713#4_0" slope="0.00"/>
        <vehicle id="11" x="1010.32" y="844.80" angle="303.17" type="car" speed="0.00" pos="5.10" lane="-26755191#1_0" slope="0.00"/>
        <vehicle id="12" x="1571.20" y="1444.47" angle="117.15" type="car" speed="0.00" pos="5.10" lane="466622341#1_0" slope="0.00"/>
        <vehicle id="2" x="1010.01" y="1045.04" angle="115.45" type="car" speed="7.83" pos="27.65" lane="-279091483#9_0" slope="0.00"/>
        <vehicle id="3" x="957.06" y="875.79" angle="123.17" type="car" speed="5.78" pos="18.37" lane="26755191#1_0" slope="0.00"/>
        <vehicle id="4" x="1015.04" y="1560.11" angle="195.09" type="car" speed="5.26" pos="17.43" lane="-26755460#1_0" slope="0.00"/>
        <vehicle id="5" x="1050.40" y="1186.99" angle="21.18" type="car" speed="3.91" pos="12.74" lane="-26755261_0" slope="0.00"/>
        <vehicle id="6" x="1481.13" y="1355.51" angle="201.34" type="car" speed="4.68" pos="13.73" lane="-26755610#1_0" slope="0.00"/>
        <vehicle id="7" x="1245.84" y="1459.23" angle="110.75" type="car" speed="2.62" pos="8.75" lane="26755479_0" slope="0.00"/>
        <vehicle id="8" x="570.68" y="1068.72" angle="32.47" type="car" speed="2.96" pos="9.35" lane="26755620_0" slope="0.00"/>
        <vehicle id="9" x="663.19" y="1111.05" angle="120.58" type="car" speed="1.82" pos="6.92" lane="26755732#3_0" slope="0.00"/>
    </timestep>
    <timestep time="7.00">
        <vehicle id="0" x="865.03" y="1119.57" angle="9.95" type="car" speed="5.24" pos="3.40" lane=":cluster_8153730405_8156750688_17_0" slope="0.00"/>
        <vehicle id="1" x="799.20" y="1159.77" angle="148.25" type="car" speed="6.32" pos="36.05" lane="464650417_0" slope="0.00"/>
        <vehicle id="10" x="1378.18" y="1174.31" angle="291.93" type="car" speed="2.73" pos="9.48" lane="-876418713#4_0" slope="0.00"/>
        <vehicle id="11" x="1009.01" y="845.65" angle="303.17" type="car" speed="1.56" pos="6.66" lane="-26755191#1_0" slope="0.00"/>
        <vehicle id="12" x="1572.34" y="1443.89" angle="117.15" type="car" speed="1.28" pos="6.38" lane="466622341#1_0" slope="0.00"/>
        <vehicle id="13" x="1221.90" y="778.12" angle="30.96" type="car" speed="0.00" pos="5.10" lane="279091483#4_0" slope="0.00"/>
        <vehicle id="14" x="989.65" y="1054.73" angle="115.45" type="car" speed="0.00" pos="5.10" lane="-279091483#9_0" slope="0.00"/>
        <vehicle id="2" x="1018.25" y="1041.12" angle="115.43" type="car" speed="9.12" pos="7.89" lane=":8153698652_6_0" slope="0.00"/>
        <vehicle id="3" x="963.49" y="871.58" angle="123.17" type="car" speed="7.69" pos="26.06" lane="26755191#1_0" slope="0.00"/>
        <vehicle id="4" x="1013.18" y="1553.20" angle="195.09" type="car" speed="7.16" pos="24.59" lane="-26755460#1_0" slope="0.00"/>
        <vehicle id="5" x="1052.41" y="1192.18" angle="21.18" type="car" speed="5.56" pos="18.30" lane="-26755261_0" slope="0.00"/>
        <vehicle id="6" x="1478.93" y="1349.86" angle="201.34" type="car" speed="6.06" pos="19.79" lane="-26755610#1_0" slope="0.00"/>
        <vehicle id="7" x="1249.43" y="1457.87" angle="110.75" type="car" speed="3.84" pos="12.59" lane="26755479_0" slope="0.00"/>
        <vehicle id="8" x="572.98" y="1072.34" angle="32.47" type="car" speed="4.29" pos="13.64" lane="26755620_0" slope="0.00"/>
        <vehicle id="9" x="665.66" y="1109.59" angle="120.58" type="car" speed="2.87" pos="9.78" lane="26755732#3_0" slope="0.00"/>
    </timestep>
    <timestep time="8.00">
        <vehicle id="0" x="866.10" y="1120.73" angle="58.70" type="car" speed="5.43" pos="2.71" lane="876050220#1_0" slope="0.00"/>
        <vehicle id="1" x="803.61" y="1153.07" angle="147.99" type="car" speed="8.02" pos="4.21" lane=":4597338787_1_0" slope="0.00"/>
        <vehicle id="10" x="1374.55" y="1175.77" angle="291.93" type="car" speed="3.91" pos="13.39" lane="-876418713#4_0" slope="0.00"/>
        <vehicle id="11" x="1006.45" y="847.33" angle="303.17" type="car" speed="3.06" pos="9.73" lane="-26755191#1_0" slope="0.00"/>
        <vehicle id="12" x="1575.10" y="1442.47" angle="117.15" type="car" speed="3.10" pos="9.48" lane="466622341#1_0" slope="0.00"/>
        <vehicle id="13" x="1222.88" y="779.75" angle="30.96" type="car" speed="1.90" pos="7.00" lane="279091483#4_0" slope="0.00"/>
        <vehicle id="14" x="991.25" y="1053.97" angle="115.45" type="car" speed="1.76" pos="6.86" lane="-279091483#9_0" slope="0.00"/>
        <vehicle id="15" x="1530.75" y="1112.28" angle="110.75" type="car" speed="0.00" pos="5.10" lane="876418713#7_0" slope="0.00"/>
        <vehicle id="16" x="1402.82" y="1305.67" angle="21.80" type="car" speed="0.00" pos="4.60" lane="26755539#0_0" slope="0.00"/>
        <vehicle id="2" x="1028.23" y="1036.38" angle="115.44" type="car" speed="11.05" pos="9.46" lane="-279091483#8_0" slope="0.00"/>
        <vehicle id="3" x="971.34" y="866.46" angle="123.17" type="car" speed="9.37" pos="35.43" lane="26755191#1_0" slope="0.00"/>
        <vehicle id="4" x="1011.01" y="1545.14" angle="195.09" type="car" speed="8.35" pos="32.94" lane="-26755460#1_0" slope="0.00"/>
        <vehicle id="5" x="1055.09" y="1199.07" angle="21.18" type="car" speed="7.40" pos="25.70" lane="-26755261_0" slope="0.00"/>
        <vehicle id="6" x="1476.10" y="1342.61" angle="201.34" type="car" speed="7.78" pos="27.57" lane="-26755610#1_0" slope="0.00"/>
        <vehicle id="7" x="1254.37" y="1456.00" angle="110.75" type="car" speed="5.27" pos="17.87" lane="26755479_0" slope="0.00"/>
        <vehicle id="8" x="576.23" y="1077.44" angle="32.47" type="car" speed="6.05" pos="19.69" lane="26755620_0" slope="0.00"/>
        <vehicle id="9" x="669.20" y="1107.50" angle="120.58" type="car" speed="4.11" pos="13.89" lane="26755732#3_0" slope="0.00"/>
    </timestep>
    <timestep time="9.00">
        <vehicle id="0" x="872.57" y="1117.51" angle="116.51" type="car" speed="7.22" pos="9.93" lane="876050220#1_0" slope="0.00"/>
        <vehicle id="1" x="810.84" y="1147.42" angle="118.31" type="car" speed="9.40" pos="2.85" lane="876050220#0_0" slope="0.00"/>
        <vehicle id="10" x="1369.76" y="1177.70" angle="291.93" type="car" speed="5.16" pos="18.55" lane="-876418713#4_0" slope="0.00"/>
        <vehicle id="11" x="1002.24" y="850.09" angle="303.17" type="car" speed="5.03" pos="14.76" lane="-26755191#1_0" slope="0.00"/>
        <vehicle id="12" x="1579.62" y="1440.15" angle="117.15" type="car" speed="5.08" pos="14.56" lane="466622341#1_0" slope="0.00"/>
        <vehicle id="13" x="1224.46" y="782.38" angle="30.96" type="car" speed="3.07" pos="10.07" lane="279091483#4_0" slope="0.00"/>
        <vehicle id="14" x="994.17" y="1052.58" angle="115.45" type="car" speed="3.24" pos="10.10" lane="-279091483#9_0" slope="0.00"/>
        <vehicle id="15" x="1532.00" y="1111.81" angle="110.75" type="car" speed="1.33" pos="6.43" lane="876418713#7_0" slope="0.00"/>
        <vehicle id="16" x="1403.28" y="1307.61" angle="17.97" type="car" speed="2.00" pos="2.00" lane=":293461482_4_0" slope="0.00"/>
        <vehicle id="17" x="1466.50" y="1475.94" angle="201.02" type="car" speed="0.00" pos="5.10" lane="-26755539#4_0" slope="0.00"/>
        <vehicle id="2" x="1039.44" y="1031.05" angle="115.44" type="car" speed="12.41" pos="21.87" lane="-279091483#8_0" slope="0.00"/>
        <vehicle id="3" x="980.79" y="860.28" angle="123.17" type="car" speed="11.29" pos="46.72" lane="26755191#1_0" slope="0.00"/>
        <vehicle id="4" x="1008.39" y="1535.43" angle="195.09" type="car" speed="10.06" pos="42.99" lane="-26755460#1_0" slope="0.00"/>
        <vehicle id="5" x="1058.23" y="1207.20" angle="21.18" type="car" speed="8.71" pos="34.41" lane="-26755261_0" slope="0.00"/>
        <vehicle id="6" x="1472.54" y="1333.51" angle="201.33" type="car" speed="9.77" pos="0.82" lane=":293461359_0_0" slope="0.00"/>
        <vehicle id="7" x="1261.12" y="1453.44" angle="110.75" type="car" speed="7.22" pos="25.09" lane="26755479_0" slope="0.00"/>
        <vehicle id="8" x="580.54" y="1084.21" angle="32.47" type="car" speed="8.03" pos="27.72" lane="26755620_0" slope="0.00"/>
        <vehicle id="9" x="673.88" y="1104.73" angle="120.58" type="car" speed="5.44" pos="19.33" lane="26755732#3_0" slope="0.00"/>
    </timestep>
    <timestep time="10.00">
        <vehicle id="0" x="880.66" y="1113.35" angle="117.76" type="car" speed="9.11" pos="19.04" lane="876050220#1_0" slope="0.00"/>
        <vehicle id="1" x="820.27" y="1142.89" angle="115.63" type="car" speed="10.46" pos="13.31" lane="876050220#0_0" slope="0.00"/>
        <vehicle id="10" x="1363.58" y="1180.19" angle="291.93" type="car" speed="6.66" pos="25.21" lane="-876418713#4_0" slope="0.00"/>
        <vehicle id="11" x="996.91" y="853.57" angle="303.17" type="car" speed="6.36" pos="21.12" lane="-26755191#1_0" slope="0.00"/>
        <vehicle id="12" x="1585.69" y="1436.81" angle="119.44" type="car" speed="6.95" pos="21.52" lane="466622341#1_0" slope="0.00"/>
        <vehicle id="13" x="1226.85" y="786.37" angle="30.96" type="car" speed="4.65" pos="14.71" lane="279091483#4_0" slope="0.00"/>
        <vehicle id="14" x="998.19" y="1050.67" angle="115.45" type="car" speed="4.46" pos="14.56" lane="-279091483#9_0" slope="0.00"/>
        <vehicle id="15" x="1534.72" y="1110.77" angle="110.81" type="car" speed="2.91" pos="1.19" lane=":8151591524_5_0" slope="0.00"/>
        <vehicle id="16" x="1403.49" y="1310.76" angle="7.22" type="car" speed="3.22" pos="1.19" lane=":293461482_10_0" slope="0.00"/>
        <vehicle id="17" x="1466.03" y="1474.71" angle="201.02" type="car" speed="1.32" pos="6.42" lane="-26755539#4_0" slope="0.00"/>
        <vehicle id="18" x="1221.90" y="778.12" angle="30.96" type="car" speed="0.00" pos="5.10" lane="279091483#4_0" slope="0.00"/>
        <vehicle id="19" x="1202.94" y="1365.67" angle="110.96" type="car" speed="0.00" pos="5.10" lane="26755764#2_0" slope="0.00"/>
        <vehicle id="2" x="1052.37" y="1024.90" angle="115.44" type="car" speed="14.32" pos="36.18" lane="-279091483#8_0" slope="0.00"/>
        <vehicle id="20" x="907.95" y="1477.00" angle="110.07" type="car" speed="0.00" pos="5.10" lane="26755764#0_0" slope="0.00"/>
        <vehicle id="3" x="991.35" y="853.38" angle="123.17" type="car" speed="12.62" pos="59.33" lane="26755191#1_0" slope="0.00"/>
        <vehicle id="4" x="1005.44" y="1524.52" angle="195.14" type="car" speed="11.30" pos="0.51" lane=":293461693_0_0" slope="0.00"/>
        <vehicle id="5" x="1061.77" y="1216.33" angle="21.18" type="car" speed="9.79" pos="44.20" lane="-26755261_0" slope="0.00"/>
        <vehicle id="6" x="1468.34" y="1322.74" angle="201.31" type="car" speed="11.55" pos="12.38" lane=":293461359_0_0" slope="0.00"/>
        <vehicle id="7" x="1269.14" y="1450.41" angle="110.75" type="car" speed="8.57" pos="33.66" lane="26755479_0" slope="0.00"/>
        <vehicle id="8" x="585.59" y="1092.14" angle="32.47" type="car" speed="9.40" pos="37.12" lane="26755620_0" slope="0.00"/>
        <vehicle id="9" x="680.07" y="1101.08" angle="120.58" type="car" speed="7.19" pos="26.52" lane="26755732#3_0" slope="0.00"/>
    </timestep>
    <timestep time="11.00">
        <vehicle id="0" x="887.87" y="1105.81" angle="137.38" type="car" speed="10.44" pos="1.72" lane=":8153731017_3_0" slope="0.00"/>
        <vehicle id="1" x="831.45" y="1137.53" angle="115.63" type="car" speed="12.40" pos="25.71" lane="876050220#0_0" slope="0.00"/>
        <vehicle id="10" x="1355.89" y="1183.28" angle="291.93" type="car" speed="8.29" pos="33.50" lane="-876418713#4_0" slope="0.00"/>
        <vehicle id="11" x="990.67" y="857.65" angle="303.17" type="car" speed="7.46" pos="28.58" lane="-26755191#1_0" slope="0.00"/>
        <vehicle id="12" x="1592.47" y="1431.13" angle="130.02" type="car" speed="8.85" pos="30.36" lane="466622341#1_0" slope="0.00"/>
        <vehicle id="13" x="1230.01" y="791.64" angle="30.96" type="car" speed="6.15" pos="20.87" lane="279091483#4_0" slope="0.00"/>
        <vehicle id="14" x="1003.72" y="1048.03" angle="115.45" type="car" speed="6.13" pos="20.69" lane="-279091483#9_0" slope="0.00"/>
        <vehicle id="15" x="1539.15" y="1109.07" angle="111.02" type="car" speed="4.75" pos="5.94" lane=":8151591524_5_0" slope="0.00"/>
        <vehicle id="16" x="1401.46" y="1314.80" angle="334.47" type="car" speed="4.66" pos="5.85" lane=":293461482_10_0" slope="0.00"/>
        <vehicle id="17" x="1464.86" y="1471.67" angle="201.02" type="car" speed="3.26" pos="9.68" lane="-26755539#4_0" slope="0.00"/>
        <vehicle id="18" x="1222.71" y="779.47" angle="30.96" type="car" speed="1.57" pos="6.67" lane="279091483#4_0" slope="0.00"/>
        <vehicle id="19" x="1204.14" y="1365.21" angle="110.96" type="car" speed="1.28" pos="6.38" lane="26755764#2_0" slope="0.00"/>
        <vehicle id="2" x="1066.65" y="1018.10" angle="115.44" type="car" speed="15.82" pos="52.00" lane="-279091483#8_0" slope="0.00"/>
        <vehicle id="20" x="909.79" y="1476.33" angle="110.07" type="car" speed="1.96" pos="7.06" lane="26755764#0_0" slope="0.00"/>
        <vehicle id="21" x="1378.91" y="1520.48" angle="109.46" type="car" speed="0.00" pos="5.10" lane="466622340#2_0" slope="0.00"/>
        <vehicle id="22" x="1018.25" y="1572.02" angle="195.09" type="car" speed="0.00" pos="5.10" lane="-26755460#1_0" slope="0.00"/>
        <vehicle id="3" x="1002.47" y="846.11" angle="123.17" type="car" speed="13.29" pos="72.62" lane="26755191#1_0" slope="0.00"/>
        <vehicle id="4" x="1002.05" y="1512.39" angle="195.62" type="car" speed="12.60" pos="13.10" lane=":293461693_0_0" slope="0.00"/>
        <vehicle id="5" x="1065.92" y="1227.03" angle="21.18" type="car" speed="11.47" pos="55.68" lane="-26755261_0" slope="0.00"/>
        <vehicle id="6" x="1463.60" y="1310.56" angle="201.26" type="car" speed="13.08" pos="11.04" lane="-26755610#0_0" slope="0.00"/>
        <vehicle id="7" x="1278.43" y="1446.89" angle="110.75" type="car" speed="9.94" pos="43.60" lane="26755479_0" slope="0.00"/>
        <vehicle id="8" x="591.34" y="1101.19" angle="32.47" type="car" speed="10.72" pos="47.84" lane="26755620_0" slope="0.00"/>
        <vehicle id="9" x="687.87" y="1096.47" angle="120.58" type="car" speed="9.07" pos="35.58" lane="26755732#3_0" slope="0.00"/>
    </timestep>
    <timestep time="12.00">
        <vehicle id="0" x="896.62" y="1098.87" angle="116.10" type="car" speed="11.50" pos="4.72" lane="-279091483#12_0" slope="0.00"/>
        <vehicle id="1" x="844.25" y="1131.38" angle="115.63" type="car" speed="14.21" pos="39.91" lane="876050220#0_0" slope="0.00"/>
        <vehicle id="10" x="1346.99" y="1186.87" angle="291.93" type="car" speed="9.59" pos="43.10" lane="-876418713#4_0" slope="0.00"/>
        <vehicle id="11" x="983.36" y="862.42" angle="303.17" type="car" speed="8.73" pos="37.31" lane="-26755191#1_0" slope="0.00"/>
        <vehicle id="12" x="1599.04" y="1424.55" angle="140.57" type="car" speed="9.92" pos="40.28" lane="466622341#1_0" slope="0.00"/>
        <vehicle id="13" x="1233.85" y="798.04" angle="30.96" type="car" speed="7.46" pos="28.33" lane="279091483#4_0" slope="0.00"/>
        <vehicle id="14" x="1010.86" y="1044.64" angle="115.45" type="car" speed="7.90" pos="28.59" lane="-279091483#9_0" slope="0.00"/>
        <vehicle id="15" x="1544.54" y="1106.98" angle="111.23" type="car" speed="5.78" pos="2.19" lane="876418713#8_0" slope="0.00"/>
        <vehicle id="16" x="1396.07" y="1317.67" angle="295.88" type="car" speed="6.15" pos="1.79" lane="-26755529#1_0" slope="0.00"/>
        <vehicle id="17" x="1463.13" y="1467.17" angle="201.02" type="car" speed="4.82" pos="0.55" lane=":293461510_1_0" slope="0.00"/>
        <vehicle id="18" x="1224.41" y="782.30" angle="30.96" type="car" speed="3.31" pos="9.98" lane="279091483#4_0" slope="0.00"/>
        <vehicle id="19" x="1206.69" y="1364.23" angle="110.96" type="car" speed="2.73" pos="9.12" lane="26755764#2_0" slope="0.00"/>
        <vehicle id="2" x="1080.62" y="1011.46" angle="115.44" type="car" speed="15.47" pos="67.47" lane="-279091483#8_0" slope="0.00"/>
        <vehicle id="20" x="913.23" y="1475.07" angle="110.07" type="car" speed="3.66" pos="10.72" lane="26755764#0_0" slope="0.00"/>
        <vehicle id="21" x="1380.51" y="1519.92" angle="109.46" type="car" speed="1.69" pos="6.79" lane="466622340#2_0" slope="0.00"/>
        <vehicle id="22" x="1017.79" y="1570.32" angle="195.09" type="car" speed="1.76" pos="6.86" lane="-26755460#1_0" slope="0.00"/>
        <vehicle id="23" x="1496.29" y="1385.27" angle="21.81" type="car" speed="0.00" pos="5.10" lane="26755610#2_0" slope="0.00"/>
        <vehicle id="24" x="1367.46" y="1395.95" angle="20.76" type="car" speed="0.00" pos="5.10" lane="-466622342_0" slope="0.00"/>
        <vehicle id="3" x="1010.20" y="841.06" angle="123.17" type="car" speed="9.23" pos="81.85" lane="26755191#1_0" slope="0.00"/>
        <vehicle id="4" x="998.35" y="1499.54" angle="196.14" type="car" speed="13.38" pos="12.14" lane="-26755460#0_0" slope="0.00"/>
        <vehicle id="5" x="1070.07" y="1237.74" angle="21.18" type="car" speed="11.49" pos="67.17" lane="-26755261_0" slope="0.00"/>
        <vehicle id="6" x="1458.51" y="1297.48" angle="201.26" type="car" speed="14.04" pos="25.08" lane="-26755610#0_0" slope="0.00"/>
        <vehicle id="7" x="1287.12" y="1443.59" angle="110.75" type="car" speed="9.30" pos="52.90" lane="26755479_0" slope="0.00"/>
        <vehicle id="8" x="597.74" y="1111.25" angle="32.47" type="car" speed="11.92" pos="59.76" lane="26755620_0" slope="0.00"/>
        <vehicle id="9" x="696.54" y="1091.34" angle="120.58" type="car" speed="10.07" pos="45.65" lane="26755732#3_0" slope="0.00"/>
    </timestep>
    <timestep time="13.00">
        <vehicle id="0" x="908.73" y="1093.04" angle="115.71" type="car" speed="13.44" pos="18.16" lane="-279091483#12_0" slope="0.00"/>
        <vehicle id="1" x="858.56" y="1124.44" angle="116.07" type="car" speed="15.91" pos="8.87" lane=":cluster_8153730405_8156750688_13_0" slope="0.00"/>
        <vehicle id="10" x="1336.90" y="1190.93" angle="291.93" type="car" speed="10.88" pos="53.98" lane="-876418713#4_0" slope="0.00"/>
        <vehicle id="11" x="974.92" y="867.94" angle="303.17" type="car" speed="10.08" pos="47.39" lane="-26755191#1_0" slope="0.00"/>
        <vehicle id="12" x="1593.57" y="1414.18" angle="207.84" type="car" speed="11.72" pos="52.00" lane="466622341#1_0" slope="0.00"/>
        <vehicle id="13" x="1238.25" y="805.36" angle="30.96" type="car" speed="8.54" pos="36.87" lane="279091483#4_0" slope="0.00"/>
        <vehicle id="14" x="1019.67" y="1040.45" angle="115.43" type="car" speed="9.77" pos="9.46" lane=":8153698652_6_0" slope="0.00"/>
        <vehicle id="15" x="1551.47" y="1104.25" angle="111.51" type="car" speed="7.44" pos="9.63" lane="876418713#8_0" slope="0.00"/>
        <vehicle id="16" x="1388.89" y="1320.38" angle="290.65" type="car" speed="7.68" pos="9.47" lane="-26755529#1_0" slope="0.00"/>
        <vehicle id="17" x="1460.82" y="1461.18" angle="201.04" type="car" speed="6.42" pos="6.98" lane=":293461510_1_0" slope="0.00"/>
        <vehicle id="18" x="1227.01" y="786.63" angle="30.96" type="car" speed="5.05" pos="15.02" lane="279091483#4_0" slope="0.00"/>
        <vehicle id="19" x="1210.58" y="1362.74" angle="110.96" type="car" speed="4.16" pos="13.28" lane="26755764#2_0" slope="0.00"/>
        <vehicle id="2" x="1090.53" y="1006.75" angle="115.44" type="car" speed="10.97" pos="78.44" lane="-279091483#8_0" slope="0.00"/>
        <vehicle id="20" x="918.42" y="1473.18" angle="110.07" type="car" speed="5.52" pos="16.24" lane="26755764#0_0" slope="0.00"/>
        <vehicle id="21" x="1383.56" y="1518.84" angle="109.46" type="car" speed="3.24" pos="10.04" lane="466622340#2_0" slope="0.00"/>
        <vehicle id="22" x="1016.85" y="1566.83" angle="195.09" type="car" speed="3.62" pos="10.48" lane="-26755460#1_0" slope="0.00"/>
        <vehicle id="23" x="1497.02" y="1387.10" angle="21.81" type="car" speed="1.96" pos="7.06" lane="26755610#2_0" slope="0.00"/>
        <vehicle id="24" x="1367.98" y="1397.33" angle="20.76" type="car" speed="1.48" pos="6.58" lane="-466622342_0" slope="0.00"/>
        <vehicle id="25" x="1498.35" y="1399.01" angle="201.81" type="car" speed="0.00" pos="5.10" lane="-26755610#2_0" slope="0.00"/>
        <vehicle id="26" x="1435.17" y="1592.04" angle="96.07" type="car" speed="0.00" pos="5.10" lane="478061447#0_0" slope="0.00"/>
        <vehicle id="3" x="1014.99" y="838.33" angle="119.26" type="car" speed="5.53" pos="2.37" lane=":293452764_7_0" slope="0.00"/>
        <vehicle id="4" x="994.63" y="1486.69" angle="196.14" type="car" speed="13.38" pos="25.52" lane="-26755460#0_0" slope="0.00"/>
        <vehicle id="5" x="1074.15" y="1248.26" angle="21.18" type="car" speed="11.28" pos="78.45" lane="-26755261_0" slope="0.00"/>
        <vehicle id="6" x="1455.05" y="1288.59" angle="201.26" type="car" speed="9.54" pos="34.62" lane="-26755610#0_0" slope="0.00"/>
        <vehicle id="7" x="1292.29" y="1441.64" angle="110.75" type="car" speed="5.52" pos="58.42" lane="26755479_0" slope="0.00"/>
        <vehicle id="8" x="604.36" y="1121.64" angle="32.47" type="car" speed="12.32" pos="72.08" lane="26755620_0" slope="0.00"/>
        <vehicle id="9" x="702.68" y="1087.72" angle="120.58" type="car" speed="7.13" pos="52.78" lane="26755732#3_0" slope="0.00"/>
    </timestep>
    <timestep time="14.00">
        <vehicle id="0" x="922.45" y="1086.44" angle="115.71" type="car" speed="15.22" pos="33.38" lane="-279091483#12_0" slope="0.00"/>
        <vehicle id="1" x="873.80" y="1116.89" angle="116.51" type="car" speed="17.02" pos="11.31" lane="876050220#1_0" slope="0.00"/>
        <vehicle id="10" x="1325.11" y="1195.59" angle="291.11" type="car" speed="12.67" pos="66.65" lane="-876418713#4_0" slope="0.00"/>
        <vehicle id="11" x="965.12" y="874.35" angle="303.17" type="car" speed="11.71" pos="59.10" lane="-26755191#1_0" slope="0.00"/>
        <vehicle id="12" x="1587.36" y="1402.42" angle="207.84" type="car" speed="13.30" pos="65.30" lane="466622341#1_0" slope="0.00"/>
        <vehicle id="13" x="1243.27" y="813.74" angle="30.96" type="car" speed="9.77" pos="46.64" lane="279091483#4_0" slope="0.00"/>
        <vehicle id="14" x="1029.97" y="1035.55" angle="115.44" type="car" speed="11.40" pos="11.38" lane="-279091483#8_0" slope="0.00"/>
        <vehicle id="15" x="1557.31" y="1101.95" angle="111.51" type="car" speed="6.28" pos="15.90" lane="876418713#8_0" slope="0.00"/>
        <vehicle id="16" x="1380.11" y="1323.69" angle="290.65" type="car" speed="9.38" pos="18.85" lane="-26755529#1_0" slope="0.00"/>
        <vehicle id="17" x="1458.00" y="1453.84" angle="201.03" type="car" speed="7.86" pos="0.44" lane="-26755539#3_0" slope="0.00"/>
        <vehicle id="18" x="1230.60" y="792.61" angle="30.96" type="car" speed="6.97" pos="22.00" lane="279091483#4_0" slope="0.00"/>
        <vehicle id="19" x="1215.52" y="1360.85" angle="110.96" type="car" speed="5.29" pos="18.57" lane="26755764#2_0" slope="0.00"/>
        <vehicle id="2" x="1096.37" y="1003.97" angle="115.44" type="car" speed="6.47" pos="84.91" lane="-279091483#8_0" slope="0.00"/>
        <vehicle id="20" x="924.99" y="1470.78" angle="110.07" type="car" speed="7.00" pos="23.24" lane="26755764#0_0" slope="0.00"/>
        <vehicle id="21" x="1388.50" y="1517.09" angle="109.46" type="car" speed="5.23" pos="15.27" lane="466622340#2_0" slope="0.00"/>
        <vehicle id="22" x="1015.39" y="1561.42" angle="195.09" type="car" speed="5.60" pos="16.08" lane="-26755460#1_0" slope="0.00"/>
        <vehicle id="23" x="1498.48" y="1390.73" angle="21.81" type="car" speed="3.91" pos="10.97" lane="26755610#2_0" slope="0.00"/>