<?xml version="1.0" encoding="UTF-8"?>

<!-- generated on 2026-03-03T01:17:19.494260+05:30 by Eclipse SUMO sumo 1.25.0
<sumoConfiguration xmlns:xsi="http://www.w3.org/2001/XMLSchema-instance" xsi:noNamespaceSchemaLocation="http://sumo.dlr.de/xsd/sumoConfiguration.xsd">

    <input>
        <net-file value="highway.net.xml"/>
        <route-files value="routes.rou.xml"/>
    </input>

    <output>
        <fcd-output value="fcd.xml"/>
    </output>

    <time>
        <begin value="0"/>
        <end value="300"/>
    </time>

    <processing>
        <max-num-vehicles value="100"/>
    </processing>

</sumoConfiguration>
-->

<fcd-export xmlns:xsi="http://www.w3.org/2001/XMLSchema-instance" xsi:noNamespaceSchemaLocation="http://sumo.dlr.de/xsd/fcd_file.xsd">
    <timestep time="0.00">
        <vehicle id="0" x="5.10" y="-8.00" angle="90.00" type="car" speed="0.00" pos="5.10" lane="edge1to2_0" slope="0.00"/>
    </timestep>
    <timestep time="1.00">
        <vehicle id="0" x="6.45" y="-8.00" angle="90.00" type="car" speed="1.35" pos="6.45" lane="edge1to2_0" slope="0.00"/>
        <vehicle id="1" x="2994.90" y="8.00" angle="270.00" type="car" speed="0.00" pos="5.10" lane="edge2to1_0" slope="0.00"/>
    </timestep>
    <timestep time="2.00">
        <vehicle id="0" x="9.26" y="-8.00" angle="90.00" type="car" speed="2.81" pos="9.26" lane="edge1to2_0" slope="0.00"/>
        <vehicle id="1" x="2993.80" y="8.00" angle="270.00" type="car" speed="1.10" pos="6.20" lane="edge2to1_0" slope="0.00"/>
    </timestep>
    <timestep time="3.00">
        <vehicle id="0" x="13.68" y="-8.00" angle="90.00" type="car" speed="4.42" pos="13.68" lane="edge1to2_0" slope="0.00"/>
        <vehicle id="1" x="2990.69" y="8.00" angle="270.00" type="car" speed="3.10" pos="9.31" lane="edge2to1_0" slope="0.00"/>
        <vehicle id="2" x="5.10" y="-8.00" angle="90.00" type="car" speed="0.00" pos="5.10" lane="edge1to2_0" slope="0.00"/>
    </timestep>
    <timestep time="4.00">
        <vehicle id="0" x="19.32" y="-8.00" angle="90.00" type="car" speed="5.64" pos="19.32" lane="edge1to2_0" slope="0.00"/>
        <vehicle id="1" x="2985.92" y="8.00" angle="270.00" type="car" speed="4.77" pos="14.08" lane="edge2to1_0" slope="0.00"/>
        <vehicle id="2" x="5.76" y="-8.00" angle="90.00" type="car" speed="0.66" pos="5.76" lane="edge1to2_0" slope="0.00"/>
        <vehicle id="4" x="2994.90" y="8.00" angle="270.00" type="car" speed="0.00" pos="5.10" lane="edge2to1_0" slope="0.00"/>
    </timestep>
    <timestep time="5.00">
        <vehicle id="0" x="26.56" y="-8.00" angle="90.00" type="car" speed="7.24" pos="26.56" lane="edge1to2_0" slope="0.00"/>
        <vehicle id="1" x="2979.28" y="8.00" angle="270.00" type="car" speed="6.64" pos="20.72" lane="edge2to1_0" slope="0.00"/>
        <vehicle id="2" x="7.76" y="-8.00" angle="90.00" type="car" speed="2.00" pos="7.76" lane="edge1to2_0" slope="0.00"/>
        <vehicle id="4" x="2993.53" y="8.00" angle="270.00" type="car" speed="1.37" pos="6.47" lane="edge2to1_0" slope="0.00"/>
    </timestep>
    <timestep time="6.00">
        <vehicle id="0" x="35.41" y="-8.00" angle="90.00" type="car" speed="8.85" pos="35.41" lane="edge1to2_0" slope="0.00"/>
        <vehicle id="1" x="2970.78" y="8.00" angle="270.00" type="car" speed="8.50" pos="29.22" lane="edge2to1_0" slope="0.00"/>
        <vehicle id="2" x="11.43" y="-8.00" angle="90.00" type="car" speed="3.66" pos="11.43" lane="edge1to2_0" slope="0.00"/>
        <vehicle id="4" x="2991.02" y="8.00" angle="270.00" type="car" speed="2.51" pos="8.98" lane="edge2to1_0" slope="0.00"/>
    </timestep>
    <timestep time="7.00">
        <vehicle id="0" x="45.77" y="-8.00" angle="90.00" type="car" speed="10.36" pos="45.77" lane="edge1to2_0" slope="0.00"/>
        <vehicle id="1" x="2961.23" y="8.00" angle="270.00" type="car" speed="9.55" pos="38.77" lane="edge2to1_0" slope="0.00"/>
        <vehicle id="2" x="16.57" y="-8.00" angle="90.00" type="car" speed="5.14" pos="16.57" lane="edge1to2_0" slope="0.00"/>
        <vehicle id="3" x="5.10" y="-8.00" angle="90.00" type="car" speed="0.00" pos="5.10" lane="edge1to2_0" slope="0.00"/>
        <vehicle id="4" x="2986.99" y="8.00" angle="270.00" type="car" speed="4.03" pos="13.01" lane="edge2to1_0" slope="0.00"/>
        <vehicle id="5" x="2994.90" y="8.00" angle="270.00" type="car" speed="0.00" pos="5.10" lane="edge2to1_0" slope="0.00"/>
    </timestep>
    <timestep time="8.00">
        <vehicle id="0" x="57.66" y="-8.00" angle="90.00" type="car" speed="11.89" pos="57.66" lane="edge1to2_0" slope="0.00"/>
        <vehicle id="1" x="2950.65" y="8.00" angle="270.00" type="car" speed="10.58" pos="49.35" lane="edge2to1_0" slope="0.00"/>
        <vehicle id="2" x="22.80" y="-8.00" angle="90.00" type="car" speed="6.23" pos="22.80" lane="edge1to2_0" slope="0.00"/>
        <vehicle id="3" x="6.12" y="-8.00" angle="90.00" type="car" speed="1.02" pos="6.12" lane="edge1to2_0" slope="0.00"/>
        <vehicle id="4" x="2981.09" y="8.00" angle="270.00" type="car" speed="5.90" pos="18.91" lane="edge2to1_0" slope="0.00"/>
        <vehicle id="5" x="2994.59" y="8.00" angle="270.00" type="car" speed="0.31" pos="5.41" lane="edge2to1_0" slope="0.00"/>
    </timestep>
    <timestep time="9.00">
        <vehicle id="0" x="70.99" y="-8.00" angle="90.00" type="car" speed="13.33" pos="70.99" lane="edge1to2_0" slope="0.00"/>
        <vehicle id="1" x="2938.56" y="8.00" angle="270.00" type="car" speed="12.08" pos="61.44" lane="edge2to1_0" slope="0.00"/>
        <vehicle id="2" x="30.04" y="-8.00" angle="90.00" type="car" speed="7.25" pos="30.04" lane="edge1to2_0" slope="0.00"/>
        <vehicle id="3" x="8.60" y="-8.00" angle="90.00" type="car" speed="2.48" pos="8.60" lane="edge1to2_0" slope="0.00"/>
        <vehicle id="4" x="2973.84" y="8.00" angle="270.00" type="car" speed="7.26" pos="26.16" lane="edge2to1_0" slope="0.00"/>
        <vehicle id="5" x="2992.99" y="8.00" angle="270.00" type="car" speed="1.60" pos="7.01" lane="edge2to1_0" slope="0.00"/>
    </timestep>
    <timestep time="10.00">
        <vehicle id="0" x="85.95" y="-8.00" angle="90.00" type="car" speed="14.96" pos="85.95" lane="edge1to2_0" slope="0.00"/>
        <vehicle id="1" x="2924.51" y="8.00" angle="270.00" type="car" speed="14.05" pos="75.49" lane="edge2to1_0" slope="0.00"/>
        <vehicle id="2" x="38.58" y="-8.00" angle="90.00" type="car" speed="8.54" pos="38.58" lane="edge1to2_0" slope="0.00"/>
        <vehicle id="3" x="13.00" y="-8.00" angle="90.00" type="car" speed="4.39" pos="13.00" lane="edge1to2_0" slope="0.00"/>
        <vehicle id="4" x="2964.83" y="8.00" angle="270.00" type="car" speed="9.01" pos="35.17" lane="edge2to1_0" slope="0.00"/>
        <vehicle id="5" x="2990.05" y="8.00" angle="270.00" type="car" speed="2.94" pos="9.95" lane="edge2to1_0" slope="0.00"/>
        <vehicle id="6" x="5.10" y="-8.00" angle="90.00" type="car" speed="0.00" pos="5.10" lane="edge1to2_0" slope="0.00"/>
    </timestep>
    <timestep time="11.00">
        <vehicle id="0" x="102.50" y="-8.00" angle="90.00" type="car" speed="16.55" pos="102.50" lane="edge1to2_0" slope="0.00"/>
        <vehicle id="1" x="2909.08" y="8.00" angle="270.00" type="car" speed="15.43" pos="90.92" lane="edge2to1_0" slope="0.00"/>
        <vehicle id="2" x="48.48" y="-8.00" angle="90.00" type="car" speed="9.90" pos="48.48" lane="edge1to2_0" slope="0.00"/>
        <vehicle id="3" x="18.43" y="-8.00" angle="90.00" type="car" speed="5.43" pos="18.43" lane="edge1to2_0" slope="0.00"/>
        <vehicle id="4" x="2954.09" y="8.00" angle="270.00" type="car" speed="10.74" pos="45.91" lane="edge2to1_0" slope="0.00"/>
        <vehicle id="5" x="2985.33" y="8.00" angle="270.00" type="car" speed="4.72" pos="14.67" lane="edge2to1_0" slope="0.00"/>
        <vehicle id="6" x="5.48" y="-8.00" angle="90.00" type="car" speed="0.38" pos="5.48" lane="edge1to2_0" slope="0.00"/>
        <vehicle id="8" x="2994.90" y="8.00" angle="270.00" type="car" speed="0.00" pos="5.10" lane="edge2to1_0" slope="0.00"/>
    </timestep>
    <timestep time="12.00">
        <vehicle id="0" x="120.32" y="-8.00" angle="90.00" type="car" speed="17.82" pos="120.32" lane="edge1to2_0" slope="0.00"/>
        <vehicle id="1" x="2892.42" y="8.00" angle="270.00" type="car" speed="16.66" pos="107.58" lane="edge2to1_0" slope="0.00"/>
        <vehicle id="2" x="60.37" y="-8.00" angle="90.00" type="car" speed="11.89" pos="60.37" lane="edge1to2_0" slope="0.00"/>
        <vehicle id="3" x="25.42" y="-8.00" angle="90.00" type="car" speed="6.99" pos="25.42" lane="edge1to2_0" slope="0.00"/>
        <vehicle id="4" x="2941.64" y="8.00" angle="270.00" type="car" speed="12.45" pos="58.36" lane="edge2to1_0" slope="0.00"/>
        <vehicle id="5" x="2978.83" y="8.00" angle="270.00" type="car" speed="6.50" pos="21.17" lane="edge2to1_0" slope="0.00"/>
        <vehicle id="6" x="7.81" y="-8.00" angle="90.00" type="car" speed="2.33" pos="7.81" lane="edge1to2_0" slope="0.00"/>
        <vehicle id="8" x="2993.67" y="8.00" angle="270.00" type="car" speed="1.23" pos="6.33" lane="edge2to1_0" slope="0.00"/>
    </timestep>
    <timestep time="13.00">
        <vehicle id="0" x="139.84" y="-8.00" angle="90.00" type="car" speed="19.51" pos="139.84" lane="edge1to2_0" slope="0.00"/>
        <vehicle id="1" x="2873.79" y="8.00" angle="270.00" type="car" speed="18.63" pos="126.21" lane="edge2to1_0" slope="0.00"/>
        <vehicle id="2" x="73.49" y="-8.00" angle="90.00" type="car" speed="13.12" pos="73.49" lane="edge1to2_0" slope="0.00"/>
        <vehicle id="3" x="34.14" y="-8.00" angle="90.00" type="car" speed="8.72" pos="34.14" lane="edge1to2_0" slope="0.00"/>
        <vehicle id="4" x="2927.59" y="8.00" angle="270.00" type="car" speed="14.05" pos="72.41" lane="edge2to1_0" slope="0.00"/>
        <vehicle id="5" x="2970.73" y="8.00" angle="270.00" type="car" speed="8.10" pos="29.27" lane="edge2to1_0" slope="0.00"/>
        <vehicle id="6" x="11.20" y="-8.00" angle="90.00" type="car" speed="3.39" pos="11.20" lane="edge1to2_0" slope="0.00"/>
        <vehicle id="8" x="2990.97" y="8.00" angle="270.00" type="car" speed="2.70" pos="9.03" lane="edge2to1_0" slope="0.00"/>
    </timestep>
    <timestep time="14.00">
        <vehicle id="0" x="159.69" y="-8.00" angle="90.00" type="car" speed="19.86" pos="159.69" lane="edge1to2_0" slope="0.00"/>
        <vehicle id="1" x="2854.26" y="8.00" angle="270.00" type="car" speed="19.53" pos="145.74" lane="edge2to1_0" slope="0.00"/>
        <vehicle id="2" x="88.03" y="-8.00" angle="90.00" type="car" speed="14.54" pos="88.03" lane="edge1to2_0" slope="0.00"/>
        <vehicle id="3" x="44.79" y="-8.00" angle="90.00" type="car" speed="10.65" pos="44.79" lane="edge1to2_0" slope="0.00"/>
        <vehicle id="4" x="2911.54" y="8.00" angle="270.00" type="car" speed="16.05" pos="88.46" lane="edge2to1_0" slope="0.00"/>
        <vehicle id="5" x="2961.27" y="8.00" angle="270.00" type="car" speed="9.46" pos="38.73" lane="edge2to1_0" slope="0.00"/>
        <vehicle id="6" x="15.91" y="-8.00" angle="90.00" type="car" speed="4.71" pos="15.91" lane="edge1to2_0" slope="0.00"/>
        <vehicle id="7" x="5.10" y="-8.00" angle="90.00" type="car" speed="0.00" pos="5.10" lane="edge1to2_0" slope="0.00"/>
        <vehicle id="8" x="2986.44" y="8.00" angle="270.00" type="car" speed="4.53" pos="13.56" lane="edge2to1_0" slope="0.00"/>
        <vehicle id="9" x="2994.90" y="8.00" angle="270.00" type="car" speed="0.00" pos="5.10" lane="edge2to1_0" slope="0.00"/>
    </timestep>
    <timestep time="15.00">
        <vehicle id="0" x="179.64" y="-8.00" angle="90.00" type="car" speed="19.95" pos="179.64" lane="edge1to2_0" slope="0.00"/>
        <vehicle id="1" x="2835.01" y="8.00" angle="270.00" type="car" speed="19.24" pos="164.99" lane="edge2to1_0" slope="0.00"/>
        <vehicle id="2" x="104.00" y="-8.00" angle="90.00" type="car" speed="15.96" pos="104.00" lane="edge1to2_0" slope="0.00"/>
        <vehicle id="3" x="57.06" y="-8.00" angle="90.00" type="car" speed="12.27" pos="57.06" lane="edge1to2_0" slope="0.00"/>
        <vehicle id="4" x="2893.73" y="8.00" angle="270.00" type="car" speed="17.81" pos="106.27" lane="edge2to1_0" slope="0.00"/>
        <vehicle id="5" x="2950.25" y="8.00" angle="270.00" type="car" speed="11.02" pos="49.75" lane="edge2to1_0" slope="0.00"/>
        <vehicle id="6" x="21.63" y="-8.00" angle="90.00" type="car" speed="5.72" pos="21.63" lane="edge1to2_0" slope="0.00"/>
        <vehicle id="7" x="6.77" y="-8.00" angle="90.00" type="car" speed="1.67" pos="6.77" lane="edge1to2_0" slope="0.00"/>
        <vehicle id="8" x="2980.67" y="8.00" angle="270.00" type="car" speed="5.77" pos="19.33" lane="edge2to1_0" slope="0.00"/>
        <vehicle id="9" x="2994.34" y="8.00" angle="270.00" type="car" speed="0.56" pos="5.66" lane="edge2to1_0" slope="0.00"/>
    </timestep>
    <timestep time="16.00">
        <vehicle id="0" x="199.39" y="-8.00" angle="90.00" type="car" speed="19.75" pos="199.39" lane="edge1to2_0" slope="0.00"/>
        <vehicle id="1" x="2815.21" y="8.00" angle="270.00" type="car" speed="19.80" pos="184.79" lane="edge2to1_0" slope="0.00"/>
        <vehicle id="2" x="121.67" y="-8.00" angle="90.00" type="car" speed="17.67" pos="121.67" lane="edge1to2_0" slope="0.00"/>
        <vehicle id="3" x="70.89" y="-8.00" angle="90.00" type="car" speed="13.83" pos="70.89" lane="edge1to2_0" slope="0.00"/>
        <vehicle id="4" x="2874.55" y="8.00" angle="270.00" type="car" speed="19.19" pos="125.45" lane="edge2to1_0" slope="0.00"/>
        <vehicle id="5" x="2937.32" y="8.00" angle="270.00" type="car" speed="12.93" pos="62.68" lane="edge2to1_0" slope="0.00"/>
        <vehicle id="6" x="29.03" y="-8.00" angle="90.00" type="car" speed="7.40" pos="29.03" lane="edge1to2_0" slope="0.00"/>
        <vehicle id="7" x="10.12" y="-8.00" angle="90.00" type="car" speed="3.35" pos="10.12" lane="edge1to2_0" slope="0.00"/>
        <vehicle id="8" x="2973.07" y="8.00" angle="270.00" type="car" speed="7.61" pos="26.93" lane="edge2to1_0" slope="0.00"/>
        <vehicle id="9" x="2991.78" y="8.00" angle="270.00" type="car" speed="2.56" pos="8.22" lane="edge2to1_0" slope="0.00"/>
    </timestep>
    <timestep time="17.00">
        <vehicle id="0" x="219.02" y="-8.00" angle="90.00" type="car" speed="19.63" pos="219.02" lane="edge1to2_0" slope="0.00"/>
        <vehicle id="1" x="2796.11" y="8.00" angle="270.00" type="car" speed="19.10" pos="203.89" lane="edge2to1_0" slope="0.00"/>
        <vehicle id="13" x="5.10" y="-8.00" angle="90.00" type="car" speed="0.00" pos="5.10" lane="edge1to2_0" slope="0.00"/>
        <vehicle id="2" x="140.44" y="-8.00" angle="90.00" type="car" speed="18.77" pos="140.44" lane="edge1to2_0" slope="0.00"/>
        <vehicle id="3" x="85.98" y="-8.00" angle="90.00" type="car" speed="15.09" pos="85.98" lane="edge1to2_0" slope="0.00"/>
        <vehicle id="4" x="2855.03" y="8.00" angle="270.00" type="car" speed="19.51" pos="144.97" lane="edge2to1_0" slope="0.00"/>
        <vehicle id="5" x="2922.51" y="8.00" angle="270.00" type="car" speed="14.82" pos="77.49" lane="edge2to1_0" slope="0.00"/>
        <vehicle id="6" x="37.79" y="-8.00" angle="90.00" type="car" speed="8.76" pos="37.79" lane="edge1to2_0" slope="0.00"/>
        <vehicle id="7" x="14.82" y="-8.00" angle="90.00" type="car" speed="4.70" pos="14.82" lane="edge1to2_0" slope="0.00"/>
        <vehicle id="8" x="2963.68" y="8.00" angle="270.00" type="car" speed="9.39" pos="36.32" lane="edge2to1_0" slope="0.00"/>
        <vehicle id="9" x="2987.63" y="8.00" angle="270.00" type="car" speed="4.15" pos="12.37" lane="edge2to1_0" slope="0.00"/>
    </timestep>
    <timestep time="18.00">
        <vehicle id="0" x="238.93" y="-8.00" angle="90.00" type="car" speed="19.91" pos="238.93" lane="edge1to2_0" slope="0.00"/>
        <vehicle id="1" x="2776.72" y="8.00" angle="270.00" type="car" speed="19.39" pos="223.28" lane="edge2to1_0" slope="0.00"/>
        <vehicle id="10" x="2994.90" y="8.00" angle="270.00" type="car" speed="0.00" pos="5.10" lane="edge2to1_0" slope="0.00"/>
        <vehicle id="13" x="6.17" y="-8.00" angle="90.00" type="car" speed="1.07" pos="6.17" lane="edge1to2_0" slope="0.00"/>
        <vehicle id="2" x="159.52" y="-8.00" angle="90.00" type="car" speed="19.07" pos="159.52" lane="edge1to2_0" slope="0.00"/>
        <vehicle id="3" x="103.04" y="-8.00" angle="90.00" type="car" speed="17.07" pos="103.04" lane="edge1to2_0" slope="0.00"/>
        <vehicle id="4" x="2835.78" y="8.00" angle="270.00" type="car" speed="19.25" pos="164.22" lane="edge2to1_0" slope="0.00"/>
        <vehicle id="5" x="2905.93" y="8.00" angle="270.00" type="car" speed="16.58" pos="94.07" lane="edge2to1_0" slope="0.00"/>
        <vehicle id="6" x="47.84" y="-8.00" angle="90.00" type="car" speed="10.05" pos="47.84" lane="edge1to2_0" slope="0.00"/>
        <vehicle id="7" x="21.14" y="-8.00" angle="90.00" type="car" speed="6.33" pos="21.14" lane="edge1to2_0" slope="0.00"/>
        <vehicle id="8" x="2952.51" y="8.00" angle="270.00" type="car" speed="11.17" pos="47.49" lane="edge2to1_0" slope="0.00"/>
        <vehicle id="9" x="2982.04" y="8.00" angle="270.00" type="car" speed="5.60" pos="17.96" lane="edge2to1_0" slope="0.00"/>
    </timestep>
    <timestep time="19.00">
        <vehicle id="0" x="258.84" y="-8.00" angle="90.00" type="car" speed="19.91" pos="258.84" lane="edge1to2_0" slope="0.00"/>
        <vehicle id="1" x="2756.96" y="8.00" angle="270.00" type="car" speed="19.76" pos="243.04" lane="edge2to1_0" slope="0.00"/>
        <vehicle id="10" x="2993.60" y="8.00" angle="270.00" type="car" speed="1.30" pos="6.40" lane="edge2to1_0" slope="0.00"/>
        <vehicle id="13" x="8.56" y="-8.00" angle="90.00" type="car" speed="2.39" pos="8.56" lane="edge1to2_0" slope="0.00"/>
        <vehicle id="2" x="179.37" y="-8.00" angle="90.00" type="car" speed="19.85" pos="179.37" lane="edge1to2_0" slope="0.00"/>
        <vehicle id="3" x="121.35" y="-8.00" angle="90.00" type="car" speed="18.30" pos="121.35" lane="edge1to2_0" slope="0.00"/>
        <vehicle id="4" x="2816.60" y="8.00" angle="270.00" type="car" speed="19.18" pos="183.40" lane="edge2to1_0" slope="0.00"/>
        <vehicle id="5" x="2887.84" y="8.00" angle="270.00" type="car" speed="18.09" pos="112.16" lane="edge2to1_0" slope="0.00"/>
        <vehicle id="6" x="59.02" y="-8.00" angle="90.00" type="car" speed="11.18" pos="59.02" lane="edge1to2_0" slope="0.00"/>
        <vehicle id="7" x="28.68" y="-8.00" angle="90.00" type="car" speed="7.54" pos="28.68" lane="edge1to2_0" slope="0.00"/>
        <vehicle id="8" x="2939.85" y="8.00" angle="270.00" type="car" speed="12.65" pos="60.15" lane="edge2to1_0" slope="0.00"/>
        <vehicle id="9" x="2974.95" y="8.00" angle="270.00" type="car" speed="7.09" pos="25.05" lane="edge2to1_0" slope="0.00"/>
    </timestep>
    <timestep time="20.00">
        <vehicle id="0" x="277.99" y="-8.00" angle="90.00" type="car" speed="19.15" pos="277.99" lane="edge1to2_0" slope="0.00"/>
        <vehicle id="1" x="2737.58" y="8.00" angle="270.00" type="car" speed="19.38" pos="262.42" lane="edge2to1_0" slope="0.00"/>
        <vehicle id="10" x="2991.25" y="8.00" angle="270.00" type="car" speed="2.35" pos="8.75" lane="edge2to1_0" slope="0.00"/>
        <vehicle id="13" x="12.10" y="-8.00" angle="90.00" type="car" speed="3.54" pos="12.10" lane="edge1to2_0" slope="0.00"/>
        <vehicle id="2" x="199.28" y="-8.00" angle="90.00" type="car" speed="19.91" pos="199.28" lane="edge1to2_0" slope="0.00"/>
        <vehicle id="3" x="140.78" y="-8.00" angle="90.00" type="car" speed="19.44" pos="140.78" lane="edge1to2_0" slope="0.00"/>
        <vehicle id="4" x="2797.34" y="8.00" angle="270.00" type="car" speed="19.26" pos="202.66" lane="edge2to1_0" slope="0.00"/>
        <vehicle id="5" x="2867.88" y="8.00" angle="270.00" type="car" speed="19.96" pos="132.12" lane="edge2to1_0" slope="0.00"/>
        <vehicle id="6" x="71.38" y="-8.00" angle="90.00" type="car" speed="12.36" pos="71.38" lane="edge1to2_0" slope="0.00"/>
        <vehicle id="7" x="37.73" y="-8.00" angle="90.00" type="car" speed="9.05" pos="37.73" lane="edge1to2_0" slope="0.00"/>
        <vehicle id="8" x="2926.07" y="8.00" angle="270.00" type="car" speed="13.78" pos="73.93" lane="edge2to1_0" slope="0.00"/>
        <vehicle id="9" x="2966.12" y="8.00" angle="270.00" type="car" speed="8.83" pos="33.88" lane="edge2to1_0" slope="0.00"/>
    </timestep>
    <timestep time="21.00">
        <vehicle id="0" x="297.33" y="-8.00" angle="90.00" type="car" speed="19.34" pos="297.33" lane="edge1to2_0" slope="0.00"/>
        <vehicle id="1" x="2717.61" y="8.00" angle="270.00" type="car" speed="19.97" pos="282.39" lane="edge2to1_0" slope="0.00"/>
        <vehicle id="10" x="2987.16" y="8.00" angle="270.00" type="car" speed="4.09" pos="12.84" lane="edge2to1_0" slope="0.00"/>
        <vehicle id="11" x="2994.90" y="8.00" angle="270.00" type="car" speed="0.00" pos="5.10" lane="edge2to1_0" slope="0.00"/>
        <vehicle id="13" x="17.54" y="-8.00" angle="90.00" type="car" speed="5.45" pos="17.54" lane="edge1to2_0" slope="0.00"/>
        <vehicle id="14" x="5.10" y="-8.00" angle="90.00" type="car" speed="0.00" pos="5.10" lane="edge1to2_0" slope="0.00"/>
        <vehicle id="2" x="218.39" y="-8.00" angle="90.00" type="car" speed="19.11" pos="218.39" lane="edge1to2_0" slope="0.00"/>
        <vehicle id="3" x="159.79" y="-8.00" angle="90.00" type="car" speed="19.01" pos="159.79" lane="edge1to2_0" slope="0.00"/>
        <vehicle id="4" x="2777.92" y="8.00" angle="270.00" type="car" speed="19.42" pos="222.08" lane="edge2to1_0" slope="0.00"/>
        <vehicle id="5" x="2848.38" y="8.00" angle="270.00" type="car" speed="19.50" pos="151.62" lane="edge2to1_0" slope="0.00"/>
        <vehicle id="6" x="85.38" y="-8.00" angle="90.00" type="car" speed="13.99" pos="85.38" lane="edge1to2_0" slope="0.00"/>
        <vehicle id="7" x="48.27" y="-8.00" angle="90.00" type="car" speed="10.54" pos="48.27" lane="edge1to2_0" slope="0.00"/>
        <vehicle id="8" x="2911.14" y="8.00" angle="270.00" type="car" speed="14.93" pos="88.86" lane="edge2to1_0" slope="0.00"/>
        <vehicle id="9" x="2956.26" y="8.00" angle="270.00" type="car" speed="9.86" pos="43.74" lane="edge2to1_0" slope="0.00"/>
    </timestep>
    <timestep time="22.00">
        <vehicle id="0" x="316.99" y="-8.00" angle="90.00" type="car" speed="19.65" pos="316.99" lane="edge1to2_0" slope="0.00"/>
        <vehicle id="1" x="2698.27" y="8.00" angle="270.00" type="car" speed="19.34" pos="301.73" lane="edge2to1_0" slope="0.00"/>
        <vehicle id="10" x="2981.82" y="8.00" angle="270.00" type="car" speed="5.34" pos="18.18" lane="edge2to1_0" slope="0.00"/>
        <vehicle id="11" x="2994.74" y="8.00" angle="270.00" type="car" speed="0.16" pos="5.26" lane="edge2to1_0" slope="0.00"/>
        <vehicle id="13" x="24.81" y="-8.00" angle="90.00" type="car" speed="7.27" pos="24.81" lane="edge1to2_0" slope="0.00"/>
        <vehicle id="14" x="6.53" y="-8.00" angle="90.00" type="car" speed="1.43" pos="6.53" lane="edge1to2_0" slope="0.00"/>
        <vehicle id="2" x="237.71" y="-8.00" angle="90.00" type="car" speed="19.32" pos="237.71" lane="edge1to2_0" slope="0.00"/>
        <vehicle id="3" x="179.33" y="-8.00" angle="90.00" type="car" speed="19.54" pos="179.33" lane="edge1to2_0" slope="0.00"/>
        <vehicle id="4" x="2758.39" y="8.00" angle="270.00" type="car" speed="19.53" pos="241.61" lane="edge2to1_0" slope="0.00"/>
        <vehicle id="5" x="2828.73" y="8.00" angle="270.00" type="car" speed="19.65" pos="171.27" lane="edge2to1_0" slope="0.00"/>
        <vehicle id="6" x="100.92" y="-8.00" angle="90.00" type="car" speed="15.54" pos="100.92" lane="edge1to2_0" slope="0.00"/>
        <vehicle id="7" x="59.96" y="-8.00" angle="90.00" type="car" speed="11.69" pos="59.96" lane="edge1to2_0" slope="0.00"/>
        <vehicle id="8" x="2894.94" y="8.00" angle="270.00" type="car" speed="16.20" pos="105.06" lane="edge2to1_0" slope="0.00"/>
        <vehicle id="9" x="2945.14" y="8.00" angle="270.00" type="car" speed="11.12" pos="54.86" lane="edge2to1_0" slope="0.00"/>
    </timestep>
    <timestep time="23.00">
        <vehicle id="0" x="336.31" y="-8.00" angle="90.00" type="car" speed="19.32" pos="336.31" lane="edge1to2_0" slope="0.00"/>
        <vehicle id="1" x="2678.64" y="8.00" angle="270.00" type="car" speed="19.63" pos="321.36" lane="edge2to1_0" slope="0.00"/>
        <vehicle id="10" x="2974.67" y="8.00" angle="270.00" type="car" speed="7.14" pos="25.33" lane="edge2to1_0" slope="0.00"/>
        <vehicle id="11" x="2992.73" y="8.00" angle="270.00" type="car" speed="2.00" pos="7.27" lane="edge2to1_0" slope="0.00"/>
        <vehicle id="13" x="33.18" y="-8.00" angle="90.00" type="car" speed="8.37" pos="33.18" lane="edge1to2_0" slope="0.00"/>
        <vehicle id="14" x="9.09" y="-8.00" angle="90.00" type="car" speed="2.56" pos="9.09" lane="edge1to2_0" slope="0.00"/>
        <vehicle id="2" x="257.47" y="-8.00" angle="90.00" type="car" speed="19.76" pos="257.47" lane="edge1to2_0" slope="0.00"/>
        <vehicle id="3" x="199.14" y="-8.00" angle="90.00" type="car" speed="19.81" pos="199.14" lane="edge1to2_0" slope="0.00"/>
        <vehicle id="4" x="2739.09" y="8.00" angle="270.00" type="car" speed="19.30" pos="260.91" lane="edge2to1_0" slope="0.00"/>
        <vehicle id="5" x="2809.04" y="8.00" angle="270.00" type="car" speed="19.69" pos="190.96" lane="edge2to1_0" slope="0.00"/>
        <vehicle id="6" x="117.80" y="-8.00" angle="90.00" type="car" speed="16.88" pos="117.80" lane="edge1to2_0" slope="0.00"/>
        <vehicle id="7" x="72.87" y="-8.00" angle="90.00" type="car" speed="12.91" pos="72.87" lane="edge1to2_0" slope="0.00"/>
        <vehicle id="8" x="2877.19" y="8.00" angle="270.00" type="car" speed="17.75" pos="122.81" lane="edge2to1_0" slope="0.00"/>
        <vehicle id="9" x="2932.87" y="8.00" angle="270.00" type="car" speed="12.27" pos="67.13" lane="edge2to1_0" slope="0.00"/>
    </timestep>
    <timestep time="24.00">
        <vehicle id="0" x="355.78" y="-8.00" angle="90.00" type="car" speed="19.47" pos="355.78" lane="edge1to2_0" slope="0.00"/>
        <vehicle id="1" x="2659.06" y="8.00" angle="270.00" type="car" speed="19.58" pos="340.94" lane="edge2to1_0" slope="0.00"/>
        <vehicle id="10" x="2966.06" y="8.00" angle="270.00" type="car" speed="8.61" pos="33.94" lane="edge2to1_0" slope="0.00"/>
        <vehicle id="11" x="2988.74" y="8.00" angle="270.00" type="car" speed="3.99" pos="11.26" lane="edge2to1_0" slope="0.00"/>
        <vehicle id="13" x="43.24" y="-8.00" angle="90.00" type="car" speed="10.05" pos="43.24" lane="edge1to2_0" slope="0.00"/>
        <vehicle id="14" x="12.83" y="-8.00" angle="90.00" type="car" speed="3.74" pos="12.83" lane="edge1to2_0" slope="0.00"/>
        <vehicle id="15" x="5.10" y="-8.00" angle="90.00" type="car" speed="0.00" pos="5.10" lane="edge1to2_0" slope="0.00"/>
        <vehicle id="2" x="276.53" y="-8.00" angle="90.00" type="car" speed="19.06" pos="276.53" lane="edge1to2_0" slope="0.00"/>
        <vehicle id="3" x="218.17" y="-8.00" angle="90.00" type="car" speed="19.03" pos="218.17" lane="edge1to2_0" slope="0.00"/>
        <vehicle id="4" x="2719.17" y="8.00" angle="270.00" type="car" speed="19.92" pos="280.83" lane="edge2to1_0" slope="0.00"/>
        <vehicle id="5" x="2789.96" y="8.00" angle="270.00" type="car" speed="19.08" pos="210.04" lane="edge2to1_0" slope="0.00"/>
        <vehicle id="6" x="135.76" y="-8.00" angle="90.00" type="car" speed="17.97" pos="135.76" lane="edge1to2_0" slope="0.00"/>
        <vehicle id="7" x="86.93" y="-8.00" angle="90.00" type="car" speed="14.06" pos="86.93" lane="edge1to2_0" slope="0.00"/>
        <vehicle id="8" x="2858.33" y="8.00" angle="270.00" type="car" speed="18.87" pos="141.67" lane="edge2to1_0" slope="0.00"/>
        <vehicle id="9" x="2919.24" y="8.00" angle="270.00" type="car" speed="13.63" pos="80.76" lane="edge2to1_0" slope="0.00"/>
    </timestep>
    <timestep time="25.00">
        <vehicle id="0" x="375.39" y="-8.00" angle="90.00" type="car" speed="19.61" pos="375.39" lane="edge1to2_0" slope="0.00"/>
        <vehicle id="1" x="2639.43" y="8.00" angle="270.00" type="car" speed="19.62" pos="360.57" lane="edge2to1_0" slope="0.00"/>
        <vehicle id="10" x="2956.41" y="8.00" angle="270.00" type="car" speed="9.65" pos="43.59" lane="edge2to1_0" slope="0.00"/>
        <vehicle id="11" x="2982.77" y="8.00" angle="270.00" type="car" speed="5.97" pos="17.23" lane="edge2to1_0" slope="0.00"/>
        <vehicle id="12" x="2994.90" y="8.00" angle="270.00" type="car" speed="0.00" pos="5.10" lane="edge2to1_0" slope="0.00"/>
        <vehicle id="13" x="54.63" y="-8.00" angle="90.00" type="car" speed="11.39" pos="54.63" lane="edge1to2_0" slope="0.00"/>
        <vehicle id="14" x="17.98" y="-8.00" angle="90.00" type="car" speed="5.15" pos="17.98" lane="edge1to2_0" slope="0.00"/>
        <vehicle id="15" x="5.23" y="-8.00" angle="90.00" type="car" speed="0.13" pos="5.23" lane="edge1to2_0" slope="0.00"/>
        <vehicle id="2" x="296.01" y="-8.00" angle="90.00" type="car" speed="19.48" pos="296.01" lane="edge1to2_0" slope="0.00"/>
        <vehicle id="3" x="237.19" y="-8.00" angle="90.00" type="car" speed="19.02" pos="237.19" lane="edge1to2_0" slope="0.00"/>
        <vehicle id="4" x="2699.88" y="8.00" angle="270.00" type="car" speed="19.28" pos="300.12" lane="edge2to1_0" slope="0.00"/>
        <vehicle id="5" x="2770.85" y="8.00" angle="270.00" type="car" speed="19.12" pos="229.15" lane="edge2to1_0" slope="0.00"/>
        <vehicle id="6" x="155.66" y="-8.00" angle="90.00" type="car" speed="19.90" pos="155.66" lane="edge1to2_0" slope="0.00"/>
        <vehicle id="7" x="102.22" y="-8.00" angle="90.00" type="car" speed="15.29" pos="102.22" lane="edge1to2_0" slope="0.00"/>
        <vehicle id="8" x="2838.56" y="8.00" angle="270.00" type="car" speed="19.77" pos="161.44" lane="edge2to1_0" slope="0.00"/>